,pretty_formula,crystal_system,spacegroup,experimentally_observed,"energy_above_hull, eV/atom",Ef,total_atoms,Gf_400,Gf_500,Gf_600,Gf_700,Gf_800,Gf_900,Gf_1000,Gf_1100,Gf_1200,Gf_1300,Gf_1400,Gf_1500,Gf_1600,Gf_1700,Gf_1800,Gf_1900,Gf_2000
mp-1223154,La4S7,Tetragonal,I-42m,False,0.08027549068181727,-2.227961026392044,11.0,-24.26086230378404,-24.153541437302508,-24.047668172948775,-23.934932406907603,-23.81168307693608,-23.5984569124529,-23.015023839150146,-22.424349080090607,-21.81541670160054,-21.172410039744108,-20.519598458953624,-19.856803660059573,-19.18399681768703,-18.501209319863545,-17.80854426821857,-17.106132863738793,-16.394131635862028
mp-32640,La5S8,Tetragonal,I-4,False,0.09537048451922914,-2.3279575295432684,13.0,-29.98832566515752,-29.867270432223904,-29.74842264047231,-29.621698098986577,-29.482712380958418,-29.240433269786585,-28.57446109585235,-27.899522966161292,-27.201965471858855,-26.462097685332147,-25.710311551776883,-24.946422782971275,-24.17042091491306,-23.38236297027638,-22.58238846287104,-21.770667994866606,-20.947400264747984
mp-2350,LaS,Cubic,Fm-3m,True,0.0,-2.4299311014062503,2.0,-4.79240246591428,-4.768906473331766,-4.7461703198034675,-4.722419918228484,-4.696921904041421,-4.658107331222341,-4.565806604460432,-4.471781607698486,-4.373394865755698,-4.266772114955002,-4.1580359360597825,-4.047180340017811,-3.934223688201704,-3.8191916152580836,-3.7021205333673035,-3.5830498437122156,-3.4620217153399304
mp-1508,LaS2,Orthorhombic,Pnma,True,0.0,-2.1415035281249977,3.0,-6.358123743161469,-6.328522845694268,-6.299151202584932,-6.267830141595338,-6.23358709683299,-6.173790626777427,-6.008420571762953,-5.841211378162891,-5.669370226479602,-5.488916316626827,-5.305898576494213,-5.120259569375989,-4.931983566356316,-4.741072485228833,-4.547548555809906,-4.351442378034148,-4.152792072031792
mp-1153,Li2S,Cubic,Fm-3m,True,0.0,-1.5254926603819439,3.0,-4.4320690731953984,-4.383083662308725,-4.328524531224287,-4.2729632797669765,-4.2150542270523275,-4.143088872949735,-4.016868791741782,-3.8881835679061654,-3.7567993289318187,-3.6225923509619498,-3.485502322108005,-3.3455210361145387,-3.2026695573496444,-2.912075989024384,-2.57844878161118,-2.2429596450617497,-1.9056140519445304
mp-995393,LiS4,Triclinic,P1,False,0.0,-0.6129430461666665,5.0,-4.037796724124156,-4.252319554676806,-4.462198478693356,-4.66830324810597,-4.869123817827536,-5.020087203540955,-4.961617217145397,-4.901512619386585,-4.839112768900057,-4.7739829263252425,-4.705835150659789,-4.634485271988573,-4.559824506486046,-4.4093338967722975,-4.2353180298095765,-4.058331956204913,-3.8783642410334576
mp-2826,Lu2S3,Trigonal,R-3c,True,0.0,-2.3534661273541646,5.0,-11.682760926303983,-11.642402489316193,-11.604001171858528,-11.563539955898914,-11.518773967102163,-11.435610606703342,-11.1939181598358,-10.94921990400952,-10.70076813769525,-10.448020850972233,-10.190577650125254,-9.928128438929402,-9.660433325096673,-9.387289773488954,-9.108530484246716,-8.824009880936508,-8.519810221953685
mp-1222266,Lu3S4,Tetragonal,I4/mmm,False,0.0,-2.2900251758928505,7.0,-15.865230788099256,-15.798356977657892,-15.73468413885989,-15.668389037225753,-15.596223961916252,-15.472581262534243,-15.13718864895719,-14.797344756234803,-14.452005704231627,-14.100411746271117,-13.741999118217322,-13.37632839955965,-13.003056797010316,-12.621892366288655,-12.232591248787344,-11.834939480480344,-11.408062473419124
mp-656,LuS,Cubic,Fm-3m,True,0.0,-2.1080337922395778,2.0,-4.144946619492865,-4.120744937963684,-4.09778710854774,-4.074266914797608,-4.049181520209246,-4.011015873150446,-3.919629398365327,-3.8267974533936155,-3.732223859629101,-3.635690880316001,-3.5370351450335784,-3.4361273294961467,-3.332864532703936,-3.2271573455143785,-3.118929209179701,-3.0081117361073018,-2.8877480799532966
mp-1315,MgS,Cubic,Fm-3m,True,0.0,-1.6615034487499991,2.0,-3.2666189582880443,-3.246457324413516,-3.227491866847696,-3.2078013253539672,-3.186321714026831,-3.151495487582212,-3.0557664102988715,-2.9559976772042305,-2.85422300553081,-2.7503666495058816,-2.6131495212396705,-2.408994610277658,-2.2036735038824955,-1.9971537965909438,-1.7894190426261614,-1.5804640766580702,-1.3702896105124518
mp-1185959,MgS2,Trigonal,R-3m,False,0.0,-1.1538006533333327,3.0,-3.4104082918401653,-3.385222096922803,-3.3607014936178015,-3.3345206365513205,-3.30537633849075,-3.2506485586515064,-3.0829304969574567,-2.911057910866556,-2.73690917329449,-2.5603020020593363,-2.349883656397587,-2.072025678201177,-1.7924655644443055,-1.511147192810748,-1.2280399351596731,-0.9431298249127664,-0.6564135249789338
mp-974355,Mn2S3,Trigonal,R-3c,False,0.03270704200000196,-0.9025616824806022,5.0,-4.448827260011709,-4.412681102201816,-4.377105319868571,-4.337869390290049,-4.292651743271603,-4.207363925770431,-3.9609766740780916,-3.7063185463181405,-3.4466611185692386,-3.18173392571034,-2.910079414882322,-2.6279548319341712,-2.3258359398610935,-2.014361266902693,-1.696806535430878,-1.3733184424225762,-1.0440519000535247
mp-2065,MnS,Cubic,Fm-3m,True,0.0,-1.139877806147629,2.0,-2.2489613290936923,-2.234373887840199,-2.220336926673203,-2.204937476800355,-2.1871343537878847,-2.1554145788646473,-2.069188802353869,-1.9788850221020593,-1.886216698306968,-1.7911018666126668,-1.6928485770264632,-1.5896111762996235,-1.476644591073975,-1.3592799438958147,-1.2391621871330898,-1.1163690698983837,-0.9909800727380018
mp-1422029,MnS2,Trigonal,R-3m,False,0.0,-0.7988626700359186,3.0,-2.3891670082123513,-2.3740497584795355,-2.3589524041368684,-2.3415573912547774,-2.320584334072384,-2.2734577583180324,-2.119737749960054,-1.9618248692754952,-1.8012772321452686,-1.637906337804253,-1.4709465833860222,-1.2985008679882948,-1.1157900279644473,-0.9281214690077908,-0.7371259611222847,-0.5428724521722721,-0.3454363737871855
mp-1627,Mo2S3,Monoclinic,P2_1/m,True,0.09554071300000189,-0.7734104646875011,5.0,-3.8520826701331474,-3.8306332902923783,-3.8115908408331656,-3.790766256254911,-3.7658752778621682,-3.7028543269449306,-3.4816338744685424,-3.257811820941383,-3.0307295978600557,-2.7999364011907284,-2.5651292616883152,-2.32609550759803,-2.0826926711019933,-1.834817714393279,-1.5823986892214172,-1.3253853707620191,-1.0637419679727067
mp-2164,Mo3S4,Trigonal,R-3,True,0.06481158214285543,-0.7627609680357169,7.0,-5.376033080103518,-5.361835770697805,-5.3515141492125995,-5.3389869099656195,-5.320947265577245,-5.251831095732726,-4.971459389057519,-4.687242715098934,-4.3982708932602925,-4.103920985695438,-3.803775364973612,-3.4975407472894045,-3.185020476060229,-2.866071853002188,-2.5405940469215675,-2.208516121205898,-1.8697864137500577
mp-1434,MoS2,Trigonal,R3m,True,0.0,-0.965501308541666,3.0,-2.9030990774783376,-2.8927078177814005,-2.883254730927068,-2.8724429915964294,-2.8590108697782055,-2.8203953283671392,-2.676636320668453,-2.531519078151608,-2.384636644406487,-2.235710349211576,-2.0845518815074646,-1.9310291815899872,-1.7750539704059793,-1.6165628706254829,-1.4555128169412717,-1.2918742963170287,-1.125627388773129
mp-648,Na2S,Cubic,Fm-3m,True,0.0,-1.2689239159375003,3.0,-3.6156220316111836,-3.5450467702708464,-3.4759620992473326,-3.405802757713623,-3.333241720534841,-3.2466223091070523,-3.1057440248517683,-2.9623591407474916,-2.7678407698249488,-2.448250605649747,-2.1270397629799573,-1.8040984653678809,-1.4793586441557505,-1.1527812781311413,-0.8243497309654177,-0.49405832752453804,-0.16191461323800116
mp-28127,Na2S5,Orthorhombic,Pnma,True,0.0,-0.6068315702232141,7.0,-4.02396816515314,-3.9197246110373385,-3.814849308452968,-3.705158656024116,-3.5883688233074738,-3.4085731496970517,-2.9661688791947967,-2.5207985345013517,-2.0232138513800955,-1.399050377759865,-0.7714646169037902,-0.14014100174999733,0.4951248975131026,1.134466969509866,1.7779585800248865,2.4256406091851606,3.077521707228687
mp-2400,NaS,Hexagonal,P6_3/mmc,True,0.0,-1.0037896839062501,2.0,-1.9004426726704635,-1.8590780183370192,-1.8181933668138126,-1.776303795118721,-1.732626190020755,-1.6758009644676881,-1.5658025869928318,-1.4544934753007042,-1.3174825137482509,-1.1177472809136777,-0.9169765077391547,-0.7150895821740582,-0.512035424745279,-0.30778266642011065,-0.10231589785224493,0.10437211914946243,0.3122796363286975
mp-12180,NaS2,Tetragonal,I-42d,True,0.0,-0.7052102397916661,3.0,-2.0011899871004872,-1.9516261946780609,-1.9020118203695238,-1.8504573560555313,-1.7959404871779836,-1.716039131184143,-1.5308771922524271,-1.3442896505178918,-1.1317300460206439,-0.856069420929698,-0.5789228533134878,-0.30015828346784623,-0.01969054163120809,0.2625354580821142,0.5465493073824206,0.8323670457090921,1.1199909737226923
mp-683941,Nb14S5,Orthorhombic,Pnma,True,0.0,-0.6587735807894717,19.0,-12.079562733536395,-11.946232524547746,-11.838037042987038,-11.732416393094978,-11.617382105566751,-11.431590627632776,-10.972294875975924,-10.49727876556841,-10.004533906175578,-9.492812392492176,-8.961302476029584,-8.40952724731801,-7.837208996577203,-7.24418004913602,-6.6303523154219945,-5.995718182020738,-5.34023699458028
mp-12627,Nb3S4,Hexagonal,P6_3/m,True,0.0,-1.3863104550000014,7.0,-9.644355607707233,-9.60558425396199,-9.57064505805486,-9.533518900135551,-9.490936304323643,-9.397354915345582,-9.092623705451228,-8.784187446395483,-8.471160831914464,-8.152964454244419,-7.829208669578978,-7.49964061490353,-7.164100945134691,-6.822484273487749,-6.474730189559796,-6.120811286820766,-5.7607069960815185
mp-32983,Nb3S5,Triclinic,P1,False,0.0,-1.419506764375,8.0,-11.269385984503261,-11.217528863651166,-11.168973315940832,-11.11729563638475,-11.058987147775388,-10.937442999338682,-10.552661598969598,-10.164060280853572,-9.770598394409888,-9.371589995465596,-8.966571787340596,-8.555239459366733,-8.137399576172163,-7.712923034119198,-7.281735240440934,-6.843799987359066,-6.399092656767582
mp-1220654,Nb5S8,Trigonal,P312,False,0.010622922692307135,-1.4029255297435896,13.0,-18.11424204086185,-18.03510214196608,-17.9616417265387,-17.88328948131293,-17.794277344718587,-17.603951397299063,-16.992259173664277,-16.374238709979764,-15.74820737004995,-15.113057425722992,-14.468041266823287,-13.812668858121757,-13.146629170761491,-12.469714937630664,-11.781806564905764,-11.08284664003904,-10.372795482492753
mp-1220475,Nb7S8,Trigonal,P3m1,False,0.0693944111626017,-1.2270090480000002,15.0,-18.146159479362876,-18.034340018959966,-17.932169706441112,-17.826143375671936,-17.708951184700943,-17.489077631890517,-16.84597107163018,-16.194372554773995,-15.532423492462023,-14.858913981791092,-14.17303305771133,-13.47425930339336,-12.762266367360553,-12.03683996958592,-11.2978580622813,-10.545268431874185,-9.779028482145776
mp-647,NbS,Hexagonal,P6_3/mmc,True,0.06572968405487778,-1.1520051537500002,2.0,-2.261790021780107,-2.2454203401447392,-2.2305049060208573,-2.2151722078374396,-2.1984121540767165,-2.168731458147673,-2.086029965585227,-2.0021317461641663,-1.9167934792354764,-1.8298575410143036,-1.7412186011897712,-1.6508095213081897,-1.558588549771247,-1.4645284632683717,-1.3686138524532536,-1.2708385155652824,-1.17119694584704
mp-10033,NbS2,Hexagonal,P6_3/mmc,True,0.0,-1.3478993033333317,3.0,-4.03101820685418,-4.015660542056468,-4.001226540073895,-3.985440104198214,-3.9670519415845478,-3.9235062701413685,-3.774852371048701,-3.624886876511871,-3.4732111215650256,-3.319560946014117,-3.1637573666745347,-3.0056817974390464,-2.845258396420885,-2.6824362234564916,-2.517185686835571,-2.349491783549274,-2.1793449579233064
mp-1190583,NbS3,Monoclinic,P2_1/m,True,0.0,-1.1487367552083327,4.0,-4.573214954265354,-4.549221069806237,-4.52562026346591,-4.499731853398906,-4.470067345433236,-4.403008461976861,-4.1787539198549135,-3.9530729137032523,-3.72541143423919,-3.495398784859487,-3.262782329505795,-3.0273920344173404,-2.7891179674188975,-2.5478854714939274,-2.3036507725681425,-2.056390066384458,-1.806089748351706
mp-438,Nd2S3,Orthorhombic,Pnma,True,0.0,-2.3760052186874985,5.0,-11.626411713466256,-11.542509526317478,-11.45916320461788,-11.372084185535677,-11.278814090045836,-11.14507168902637,-10.850557365864242,-10.550636860628387,-10.240505882682436,-9.921226816571089,-9.585011591738171,-9.241914417291213,-8.892074734517378,-8.53564654038198,-8.1728024842404,-7.8037058459580955,-7.4285301934603964
mp-2656,Nd3S4,Cubic,I-43d,True,0.03791326500000025,-2.3154009248214282,7.0,-15.797623964923904,-15.667517013886357,-15.53850915337076,-15.404369831698041,-15.261531080994196,-15.064102305326522,-14.651559361952888,-14.23096457976144,-13.795189194956041,-13.345880052558336,-12.87139187317094,-12.386831694281907,-11.892425722966212,-11.388416813098331,-10.87507102989331,-10.35263769377346,-9.821379181085224
mp-1209822,Nd4S7,Tetragonal,P-42m,False,0.059381074886363905,-2.1236200276988613,11.0,-22.84721879193591,-22.671698100630202,-22.49675855552653,-22.313418445824063,-22.116521812145642,-21.82644370074678,-21.16273431404651,-20.48809769461324,-19.792769916857385,-19.07876921345916,-18.330445790432485,-17.56785661833887,-16.79124648946418,-16.00089968088608,-15.197147308951317,-14.38030713214258,-13.550722237393668
mp-1220205,Nd5S4,Trigonal,R-3m,False,0.053334269166668946,-1.9880760576388827,9.0,-17.255211848377392,-17.06690315121485,-16.88184116411248,-16.690720527971102,-16.488232499873007,-16.22739274126502,-15.746929185856681,-15.253352215313438,-14.73519480815331,-14.195485803170214,-13.6150128090318,-13.019091415294284,-12.40818954118517,-11.782775188103193,-11.143329617710755,-10.49029183404032,-9.824109928114321
mp-1220359,Nd5S9,Monoclinic,C2,False,0.07095966453125158,-2.077576417321424,14.0,-28.43950410741303,-28.21705650004258,-27.995202679250575,-27.76261436025169,-27.512786793492687,-27.14342316291783,-26.2939985804622,-25.430886239943934,-24.54184239829683,-23.62936321226887,-22.673868026159035,-21.700415191255793,-20.70930217534439,-19.70087839555864,-18.675554201741004,-17.633724591682757,-16.575817411821944
mp-1748,NdS,Cubic,Fm-3m,True,0.0,-2.2965866176562493,2.0,-4.459118737096134,-4.418542380866988,-4.378509249710609,-4.337077354779712,-4.293137107225337,-4.235079140236746,-4.1226789276848645,-4.007633058388896,-3.8876170591890706,-3.763215390562337,-3.630570843667477,-3.494736246885024,-3.355798366002789,-3.2138460579299237,-3.0689727385261074,-2.9212644483481887,-2.7708099958172756
mp-13568,NdS2,Monoclinic,P2_1/c,True,0.0,-2.015294486041666,3.0,-5.913051563168294,-5.866407728948199,-5.819776535104524,-5.77081140765276,-5.718163556416837,-5.6391611190855055,-5.453729005174798,-5.265536365934455,-5.072103383887869,-4.873907983102797,-4.667019301864283,-4.456438720899319,-4.24221891570726,-4.024425026344272,-3.8031362863060494,-3.5784299349012,-3.350390731633958
mp-362,Ni3S2,Trigonal,R32,True,0.0,-0.5710661109999997,5.0,-2.743398988371559,-2.701843192489245,-2.66204033932201,-2.6176642436097097,-2.5680754619131516,-2.490543783403351,-2.304737462120737,-2.114168582125541,-1.9182438700379603,-1.716578335163021,-1.5089140929838347,-1.2950887386264744,-1.0750079982928629,-0.8486201374874671,-0.5931610796497147,-0.3219132423348636,-0.043943285658741615
mp-1050,Ni3S4,Cubic,Fd-3m,True,0.0,-0.6579717471428553,7.0,-4.475941523829371,-4.417157185449785,-4.359064620392582,-4.2945284731231705,-4.2224308975481435,-4.0979166918374865,-3.760952981321849,-3.418996974922531,-3.0711447106260517,-2.716798124919059,-2.3555520275371915,-1.9871411182994327,-1.6114029428307965,-1.2282383329297826,-0.8148548473078421,-0.38451730102375414,0.05371574364039944
mp-767469,Ni9S10,Triclinic,P-1,False,0.08902302263157758,-0.5477238065789474,19.0,-9.994701152511379,-9.825477131490155,-9.65938959982878,-9.475841661197919,-9.27195817997157,-8.93529854166072,-8.06546525096709,-7.180884809793522,-6.279156020733253,-5.358697766064583,-4.418441780741926,-3.457695059529314,-2.476038419878691,-1.4732217908915288,-0.38089621343016233,0.7611262648326047,1.925661859216774
mp-976920,Ni9S8,Orthorhombic,C222,False,0.0,-0.6105278129411749,17.0,-10.034945320674566,-9.895473475555875,-9.760199289189725,-9.609335035521234,-9.440483981578616,-9.163330503873878,-8.457178235818539,-7.736508554454346,-6.999230951008233,-6.243977380576887,-5.4698268838621615,-4.676189350935211,-3.8627137798248654,-3.029197533338589,-2.107320017066659,-1.1369108811783981,-0.14516200818752623
mp-1547,NiS,Trigonal,R3m,True,0.014181840833332515,-0.6101837862499989,2.0,-1.1768406640223241,-1.1593102592258828,-1.142187307102352,-1.1232282175192756,-1.1021401088878873,-1.06765874576502,-0.9797233580458536,-0.8901621612273104,-0.7987256160771761,-0.7052498802273961,-0.609624441214429,-0.5117780148624522,-0.41166781314261947,-0.30926868560542636,-0.19698787927602032,-0.0792499329234051,0.040924283052764444
mp-1180046,NiS2,Monoclinic,P2_1/c,False,0.0,-0.5908853016666663,3.0,-1.7387342708322637,-1.7172320558074432,-1.6956067087591853,-1.671210054417811,-1.6435100098674438,-1.590179844164406,-1.4313082228489835,-1.2706959238486353,-1.1079380636143101,-0.9427642633687596,-0.7749903577747088,-0.6044936150027889,-0.4311971567357027,-0.2550521156709564,-0.06845155646971346,0.1241887833472628,0.3198520822971922
mp-20905,OsS2,Cubic,Pa-3,True,0.0,-0.4834472443750049,3.0,-1.4302475483257924,-1.413106740390988,-1.3969787282971824,-1.3795925974887941,-1.3596907636766793,-1.3147070804639784,-1.164680464725385,-1.013398220791422,-0.8604554651130405,-0.7055859646351252,-0.5486096997425332,-0.3894122300501617,-0.22792082296284688,-0.06409282976129482,0.10209097695945779,0.2706362723334603,0.4415381020075424
mp-21276,PbS,Cubic,Fm-3m,True,0.0,-0.7835693762499978,2.0,-1.4775848979389465,-1.4485083722613985,-1.4203419680653835,-1.3829869882069938,-1.343634615978014,-1.2909957416024793,-1.1850894001266292,-1.0778350129343113,-0.9690680280970376,-0.8586950805230149,-0.7466585157058963,-0.6329243609690547,-0.5174778119080434,-0.40031444668402205,-0.28143958456134666,-0.1608646430984697,-0.03860588057917269
mp-1025039,PbS2,Tetragonal,I4/mcm,False,0.0,-0.6212915933333338,3.0,-1.7767972904863192,-1.7419667272647485,-1.7075157008283646,-1.6629409288960333,-1.6151943934324313,-1.5419244891610835,-1.3632996867733347,-1.183211970083569,-1.0013414428464613,-0.8174882035610249,-0.6315209448471792,-0.44335424637475196,-0.25293921345084414,-0.06024770738362761,0.1347291349265296,0.3319886971694084,0.531518769978109
mp-558378,Pd3S,Orthorhombic,Cmcm,True,0.0,-0.26184143320312714,4.0,-0.9350838868684731,-0.9007759757132402,-0.8710617956280335,-0.8412603538382255,-0.808869527110315,-0.7615593210050853,-0.6587459472950687,-0.5519627090267609,-0.4408027700531916,-0.32501876900457916,-0.20446689502856552,-0.079067283820768,0.05122159237884372,0.18644018837921017,0.32662191394929074,0.49419198289168875,0.6740134582626265
mp-7819,Pd4S,Tetragonal,P-42_1c,True,0.0025734079999999437,-0.20689973856250105,5.0,-0.8766155363286503,-0.830952523917343,-0.7915913478315195,-0.752425546084085,-0.7101986881394069,-0.6521582799120331,-0.5374761252169731,-0.41753910730603927,-0.2918565594222211,-0.16013417854220346,-0.02220476782075753,0.12202100926345061,0.272587159627637,0.42953971739940044,0.5929185014826821,0.7926208631982181,1.0084628703153387
mp-20250,PdS,Tetragonal,P4_2/m,True,0.0,-0.4570447626562508,2.0,-0.8783451614230738,-0.8630811680237329,-0.8489946951835026,-0.8342556885526905,-0.8178706395020576,-0.7883545528848568,-0.7056124563886703,-0.6214704926493542,-0.5356894867400261,-0.4481159605979652,-0.35865287535656076,-0.26723931114532284,-0.17383869851860556,-0.07842174130477142,0.01903215199515751,0.12600392014754114,0.2374506167823709
mp-13682,PdS2,Orthorhombic,Pbca,True,0.0,-0.33767386020833595,3.0,-0.9933764665135243,-0.9757641567528059,-0.9587987828548494,-0.9402457053327404,-0.9188722142301309,-0.872130818899761,-0.7200759826743202,-0.5665064106202005,-0.4110275834936825,-0.25337948682285294,-0.09339142886736607,0.06904895789681209,0.23401233320378267,0.40155171007816826,0.5717018623829322,0.7519525301326757,0.9372648158742631