,pretty_formula,crystal_system,spacegroup,experimentally_observed,"energy_above_hull, eV/atom",Ef,total_atoms,Gf_400,Gf_500,Gf_600,Gf_700,Gf_800,Gf_900,Gf_1000,Gf_1100,Gf_1200,Gf_1300,Gf_1400,Gf_1500,Gf_1600,Gf_1700,Gf_1800,Gf_1900,Gf_2000
mp-1103434,SbRuS,Monoclinic,P2_1/c,True,0.0,-0.6836457441666658,3.0,-2.063536138636173,-2.0615380805560144,-2.0630744538042345,-2.064748780266152,-2.064672289457877,-2.05078513129804,-1.9607206673936735,-1.8670996995101374,-1.7705382281736273,-1.670857598709087,-1.5679560420066325,-1.4617776760062906,-1.3523031442853588,-1.2395245185474075,-1.1234479639355364,-1.0269527097049806,-0.8622549347515855
mp-1219520,Sc(CuS)3,Trigonal,R-3,False,0.007183582767853025,-0.9256752162053569,7.0,-6.352331345669441,-6.303336579432599,-6.260471737526071,-6.216655358802992,-6.168036529853789,-6.079617539650131,-5.830745728063785,-5.576629767974179,-5.316319057993842,-5.049093754021757,-4.761687081091283,-4.449015891687622,-4.128503366508594,-3.7976981582575,-3.4587666275321016,-3.1050046823071664,-2.742734190041759
mp-10953,Sc2CdS4,Cubic,Fd-3m,True,0.0,-1.7935715930357137,7.0,-12.49836061084903,-12.459065435796086,-12.422083011419518,-12.371837291922002,-12.315289407216758,-12.2069208399325,-11.886572270874822,-11.501907158641139,-11.07316265123507,-10.639071151018788,-10.19913833470207,-9.75301080550858,-9.300435939606938,-8.836277516404078,-8.364631211935382,-7.871847813172373,-7.370329407297366
mp-3930,Sc2MnS4,Cubic,Fd-3m,True,0.0,-1.9010430801046792,7.0,-13.273361595989366,-13.239308595995553,-13.2077984342565,-13.172782970866981,-13.130918106948188,-13.036560953464836,-12.728984227290303,-12.41414334950322,-12.093018588799543,-11.765012918096453,-11.42906301374098,-11.083050437758663,-10.722027536002539,-10.346222652319604,-9.96138975159844,-9.553966680975353,-9.136430150631053
mp-22630,Sc2PbS4,Orthorhombic,Pnma,True,0.007675000357145301,-1.797269629285712,7.0,-12.480510531901455,-12.430049113234674,-12.382490174217684,-12.323599846593712,-12.258266399209491,-12.141070812024928,-11.811894186636406,-11.478183367659902,-11.13904061166513,-10.793857490833407,-10.442204976998099,-10.083776312756868,-9.718354112916465,-9.340831176938757,-8.955321836608725,-8.548197607508552,-8.131871977556425
mp-1001012,Sc2ZnS4,Cubic,Fd-3m,True,0.00963206321428256,-1.8751928235714277,7.0,-13.048497952182124,-13.004188864036095,-12.963016488840372,-12.918105615124206,-12.856621549615872,-12.743099151116546,-12.417402938334074,-12.086967318718038,-11.732161066949775,-11.289288228652072,-10.840575110684465,-10.385667279840078,-9.924311075857013,-9.451372351003256,-8.970944708453139,-8.469381008039237,-7.959081264082812
mp-1094066,ScAgS2,Trigonal,R3m,False,0.0,-1.406547278906249,4.0,-5.584308854428424,-5.561658187674805,-5.541626851825384,-5.520483224473984,-5.496170847516398,-5.445635779785939,-5.288599980062447,-5.128633855605504,-4.965177178549226,-4.791551017849785,-4.610486102738775,-4.425077673850401,-4.235251555862842,-4.038492816069032,-3.8368953183695007,-3.6236798042914824,-3.4050880457271955
mp-6980,ScCuS2,Trigonal,P3m1,True,0.0,-1.473687655156251,4.0,-5.840548742949973,-5.815056569314652,-5.792271823178854,-5.7684556271226715,-5.741556705194561,-5.6885325169637015,-5.5291195312373995,-5.3668964467195055,-5.201301999113597,-5.031924552810373,-4.854218058267522,-4.66639720473821,-4.474202192192108,-4.27511497863055,-4.071227355093002,-3.85575799024563,-3.6349465831195875
mp-13312,ScTlS2,Hexagonal,P6_3/mmc,True,0.0,-1.6159478783333245,4.0,-6.373043849532062,-6.3376324652049565,-6.301624367837395,-6.258086401106011,-6.211057354872601,-6.137614914648203,-5.957590900849177,-5.774652108774701,-5.5883181157099475,-5.398270564793604,-5.20429879540392,-5.006261275619782,-4.804067247230837,-4.595185194641485,-4.329166099438946,-4.007345954225748,-3.6807797142904937
mp-7614,Si(Ag4S3)2,Orthorhombic,Pna2_1,True,0.0,-0.28552152845833234,15.0,-3.922856247274395,-3.79931252272838,-3.6902249108796026,-3.57985370136402,-3.459617351965834,-3.2589880793456185,-2.736298002208592,-2.201767261422809,-1.6534253336307394,-1.0396213147373103,-0.38349822217698026,0.28921361190310435,0.9783762181006779,1.6883755093390356,2.440452878382235,3.207987999029772,3.990619259592485
mp-17948,Si(Hg2S3)2,Monoclinic,Cc,True,0.013040849090908857,-0.5351926972727289,11.0,-5.344960169682148,-5.171698113318837,-5.004637765939327,-4.56518555997751,-4.002118271714611,-3.365791773441278,-2.4156070215797527,-1.4624651877858685,-0.5048388599177311,0.4582775154251877,1.4275723392663267,2.4034825001932703,3.386295412998969,4.380814119878188,5.408656512101945,6.443556756357263,7.48548735880772
mp-504564,Si(PbS2)2,Monoclinic,P2_1/c,True,0.0,-0.8998158892857125,7.0,-6.180819149569092,-6.127146210207286,-6.076764411945236,-6.00704894492903,-5.9310406405799,-5.803545384283456,-5.46460596079928,-5.121827788614921,-4.774460297435823,-4.422037050426354,-4.064254427514408,-3.7009217515173667,-3.3319304624479695,-2.952594150564579,-2.541367200510141,-2.1245672334791017,-1.7022431211280598
mp-1192397,Si(SnS2)2,Monoclinic,P2_1/c,True,0.004169816785712044,-0.5863839969642868,7.0,-4.078079535260894,-4.046520140045596,-3.990336665947673,-3.930040541906807,-3.8640920946025608,-3.747067121842168,-3.4188881824433484,-3.087067416145665,-2.7507796296561615,-2.4094941274461528,-2.062884487971795,-1.710751742606206,-1.3529894042231927,-0.9849276459696501,-0.5850312167938512,-0.17964053936198177,0.2311830775029673
mp-1219303,Si3Ag10S11,Triclinic,P-1,False,0.0068608777864316295,-0.3800812706901316,24.0,-8.802987447123837,-8.662364972705031,-8.542386710896979,-8.419130046503955,-8.279520365222123,-7.995820121517909,-7.125952714440244,-6.239284827583951,-5.332615740486354,-4.340892336387533,-3.2927138427265774,-2.2200283939860554,-1.1228702873566334,0.01242860892771347,1.2501434801221691,2.510983042840394,3.7944666610651154
mp-1190974,SiAg2S3,Monoclinic,P2_1/c,True,0.006062687395841593,-0.4533227610937445,6.0,-2.696744107186734,-2.6744401313592014,-2.656853357308496,-2.638228295769033,-2.615413409815112,-2.553814832315032,-2.33301912894542,-2.108406266713185,-1.8791675149507592,-1.6321803676453381,-1.3730893458609765,-1.1082349837624417,-0.8375925603165202,-0.5565574227444223,-0.24365203244080824,0.07474743948603368,0.3985383237970481
mp-34987,Sm(DyS2)2,Tetragonal,I-42d,False,0.06996268264285366,-2.2732711969047608,7.0,-15.58392887257689,-15.472889228895857,-15.362609762952411,-15.247252730239566,-15.123613950000504,-14.946156249114331,-14.554675741873716,-14.156486609786366,-13.750235079987377,-13.333341433783836,-12.90430808312934,-12.463241806404309,-12.012821005325375,-11.54832506794331,-11.060602015217572,-10.563581014178759,-10.057531696187048
mp-13283,Sm(ErS2)3,Monoclinic,P2_1/m,True,0.0,-2.37969478,10.0,-23.416586098194358,-23.279135841387422,-23.142512297082213,-22.998715631422172,-22.843358702359716,-22.608388975473225,-22.05370159490098,-21.490495470951352,-20.917162229637704,-20.33101242022252,-19.730534263929584,-19.11589214622272,-18.489851346525523,-17.85228766723626,-17.20140825087561,-16.50662397079835,-15.801250818117655
mp-978640,Sm(Mo3S4)2,Trigonal,R-3,True,0.001029084333302066,-1.1746134683333593,15.0,-17.742992170522253,-17.724994326869485,-17.714585207200688,-17.698101071509893,-17.668139835528144,-17.5331352125217,-16.972476480339697,-16.400834212559925,-15.816034745440344,-15.215012965423268,-14.596036520714776,-13.959126047654387,-13.306977426200401,-12.639427161421956,-11.956382225585841,-11.257804915146977,-10.543685799663656
mp-35281,Sm2CdS4,Tetragonal,I-42d,False,0.09555281107142921,-1.8415060228571423,7.0,-12.653458258011232,-12.564216775908491,-12.473378628510737,-12.36528692843904,-12.246911097050896,-12.072798948529144,-11.682872005260972,-11.224882858869648,-10.718629210812704,-10.199400441220874,-9.665058447978215,-9.116582683974134,-8.559999221547649,-7.9954472715198905,-7.423088219622073,-6.843094690417029,-6.255647182239079
mp-675037,Sm2EuS4,Tetragonal,I-42d,False,0.0,-2.3750846614285734,7.0,-16.316444719305203,-16.20887889694231,-16.100483367879,-15.985318817416045,-15.860174846213411,-15.679560920524217,-15.283368506250177,-14.878866181955548,-14.462762049678252,-14.032701296151089,-13.586622515117572,-13.125569418160175,-12.65562300843617,-12.176974318293368,-11.585019225871102,-10.992171636760364,-10.391867995815655
mp-1202520,Sm2HfS5,Orthorhombic,Pnma,True,0.0,-2.2070472700000003,8.0,-17.49690533197268,-17.420849213242057,-17.34343487597573,-17.258153627882475,-17.161448079519683,-16.9966853964889,-16.56385258594922,-16.12235765421129,-15.67063137112243,-15.204453564391333,-14.721637353361123,-14.223133544739389,-13.714951739895758,-13.197229197839583,-12.670124522673945,-12.133819157032505,-11.588501987499122
mp-1232090,Sm2MgS4,Orthorhombic,Pca2_1,False,0.032962399821430566,-2.1318617655357137,7.0,-14.63445527846499,-14.532731754314485,-14.430287348669555,-14.320984788599125,-14.201465465196902,-14.026108254468816,-13.62729982882537,-13.217519939551957,-12.797629665833218,-12.363595176938096,-11.882122232490811,-11.320693886976876,-10.751157843040534,-10.17365434793346,-9.588341678095253,-8.995396603810882,-8.394995477692548
mp-675511,Sm2PbS4,Tetragonal,I-42d,False,0.04233147821428407,-1.8716543807142851,7.0,-12.88525129047593,-12.800966279799916,-12.715674332802303,-12.615060739644715,-12.50402206061816,-12.337205607236669,-11.954573322678216,-11.563661184584639,-11.163132002979557,-10.74893432781285,-10.318995352092166,-9.874341168080914,-9.421033086756228,-8.959239338994191,-8.489139966275594,-8.01092832177396,-7.524796304559455
mp-1219172,Sm2SbS,Tetragonal,P4/mmm,False,0.09313920499999906,-1.6770245906250008,4.0,-6.513226402800757,-6.4540716057936525,-6.39592759950315,-6.333910250770108,-6.265372336086372,-6.177858452918201,-6.008788647831101,-5.830666322850683,-5.643522015515008,-5.44361559355726,-5.229102463620031,-5.0011765345242924,-4.766017971001078,-4.5238827373739525,-4.275015187256868,-4.042517909096269,-3.738805655040375
mp-7355,Sm2SnS5,Orthorhombic,Pbam,True,0.0035248146875002107,-1.7411233715624999,8.0,-13.700600511526654,-13.606574418512986,-13.497053194490181,-13.378885663879437,-13.24943893327382,-13.052182774897652,-12.587168454603098,-12.113857873088524,-11.630721184561523,-11.133568273216245,-10.620241278450745,-10.091710699152749,-9.554004792441475,-9.007276363784282,-8.451696454450646,-7.887461017101698,-7.314764120473953
mp-36150,Sm2TmS4,Tetragonal,I-42d,False,0.07708570705357243,-2.2654362521428584,7.0,-15.563022068387616,-15.459179112055047,-15.354594545617385,-15.243254431377013,-15.121834362635234,-14.944699741801044,-14.551649792458715,-14.1501064848914,-13.738648678249554,-13.3131554816373,-12.871511594410444,-12.414716161638527,-11.948812874979616,-11.473958564573927,-10.99032705331905,-10.49016538149013,-9.97970058315241
mp-1196148,Sm2ZrS5,Orthorhombic,Pnma,True,0.0,-2.1992519825000034,8.0,-17.376251880702444,-17.285891927877632,-17.19439969837337,-17.09527168205108,-16.984927687996446,-16.80670586175607,-16.360551753267718,-15.905828802329102,-15.438619227199226,-14.95608234462652,-14.457336139995459,-13.943322092138843,-13.420031146676692,-12.887576724716103,-12.346091519596815,-11.79572484460597,-11.23663242055035
mp-1209031,Sm3CrS6,Orthorhombic,Pnnm,False,0.0,-2.0253682932500006,10.0,-19.89468465335562,-19.76083586267158,-19.625260019655357,-19.479489860279894,-19.3188853534475,-19.075259228767234,-18.508429934517917,-17.929558033078195,-17.336492060861996,-16.723008339013457,-16.08587150477957,-15.426505206722062,-14.753891234602907,-14.068179008481167,-13.369536597446391,-12.65815686169072,-11.93422629033217
mp-1219136,Sm3DyS4,Orthorhombic,Pmmm,False,0.005660266249998713,-2.2580483308333337,8.0,-17.669115845008356,-17.53765923012344,-17.405114905072,-17.264002005722624,-17.11026876526835,-16.897926490887134,-16.46654036251104,-16.023336181962968,-15.566443117805063,-15.089810143209052,-14.59029841607326,-14.069376440156649,-13.536038218549304,-12.988180765662984,-12.421471313884952,-11.843117268433737,-11.253480081576967
mp-1219178,Sm3ErS4,Orthorhombic,Pmmm,False,0.007911497500001197,-2.2473349693749984,8.0,-17.592444499902925,-17.463159193278265,-17.332654549809362,-17.193451778225857,-17.041507403165074,-16.830844132540822,-16.401052020617964,-15.959407654315529,-15.504122080207797,-15.029234440922878,-14.531701245968158,-14.013093605725384,-13.482502947754778,-12.940165510181622,-12.385745001529369,-11.809305229566164,-11.222193810212016
mp-675396,Sm3Eu3S8,Monoclinic,C2,False,0.0,-2.341639232142857,14.0,-32.13515645568387,-31.914457066145903,-31.693878850863207,-31.461725592211188,-31.211688426007374,-30.85285987132584,-30.065074681496704,-29.262700039040997,-28.43754153498594,-27.588418588762792,-26.712132883894242,-25.810199733890908,-24.891730930007974,-23.957028731790004,-22.692011599148373,-21.433643944809333,-20.161969617698347
mp-1219190,Sm3HoS4,Trigonal,R-3m,False,0.0,-2.2617593624999985,8.0,-17.699101407242278,-17.56787432505487,-17.435553314117737,-17.29468445749333,-17.141256409165486,-16.9292690755763,-16.498252398019698,-16.055408340416314,-15.598865034897774,-15.122571454635791,-14.623387721098162,-14.102788556627043,-13.569764855020935,-13.024451284212851,-12.460011060421744,-11.880757874817334,-11.290549059855874
mp-21604,Sm3InS6,Orthorhombic,Pnnm,True,0.0,-1.9901612319166646,10.0,-19.549389585203773,-19.410417040767435,-19.266673447522773,-19.11233651216358,-18.942981781143068,-18.69059714083042,-18.115151321931776,-17.527935477072965,-16.926915259318182,-16.30598307003128,-15.662013408095778,-14.996534601557258,-14.318636228953157,-13.628568244104247,-12.926601322722888,-12.213027822332396,-11.488133729381985
mp-1219179,Sm3TmS4,Orthorhombic,Pmmm,False,0.011458504999999342,-2.2390568656250007,8.0,-17.52328661998745,-17.393711902259778,-17.26323292256997,-17.124334614579006,-16.97290406207847,-16.762868621373126,-16.33377481664544,-15.892894052661767,-15.438451886023863,-14.964508187970488,-14.468050560925038,-13.950685353907387,-13.421545451699085,-12.88090958607728,-12.329060214593763,-11.75834854720356,-11.175095511740444
mp-1219140,Sm3YS4,Monoclinic,C2/m,False,0.0036367412499984653,-2.2571746118750013,8.0,-17.704864738576163,-17.58450347059867,-17.46312186043931,-17.333162348107205,-17.19053170957408,-16.989233997004153,-16.56885304607908,-16.136675808023227,-15.690930948729935,-15.225682485160114,-14.737916983306619,-14.22923871932825,-13.708778505145503,-13.17681196324392,-12.632152929109683,-12.068518628140637,-11.49415256680972
mp-1195802,Sm4(GeS4)3,Trigonal,R3c,True,0.01066367200656515,-1.5486002897368423,19.0,-29.091324948928232,-28.925862043430094,-28.75995475979944,-28.57834278252263,-28.372629910523052,-28.006940798524518,-27.001206499707816,-25.977906995791287,-24.93337975340919,-23.77391430830932,-22.570328180801294,-21.334338584854216,-20.077938629986154,-18.801401642717853,-17.505059806058114,-16.189303495917272,-14.854539277718473
mp-1196898,Sm4(SiS4)3,Trigonal,R3c,True,0.008372933684202444,-1.7154117992105247,19.0,-32.15201535264423,-31.96231254525134,-31.77318831666225,-31.568928394789747,-31.340918928145246,-30.95318507412138,-29.92562679298293,-28.88077692440541,-27.815025792980304,-26.71961810883484,-25.589958633818753,-24.42779930232402,-23.245055491578732,-22.02803980882083,-20.7124329368259,-19.377483105056683,-18.023590660353094
mp-1219173,Sm4EuS5,Trigonal,R-3m,False,0.004468377000000245,-2.2924165517500006,10.0,-22.42627899992346,-22.26076017844416,-22.09355576185399,-21.915319593033722,-21.72102505229676,-21.453243018187244,-20.911508993448408,-20.35476298804141,-19.77885115458998,-19.177673667686964,-18.54730127433734,-17.88994064637071,-17.21781708290283,-16.531341702702406,-15.72611347085319,-14.914745831057694,-14.090858966790595
mp-1219448,Sm4GdS5,Orthorhombic,Immm,False,0.04186010800000428,-2.2431412752499993,10.0,-22.00299501149541,-21.85384452423268,-21.702905835236308,-21.54068768711238,-21.362071217856858,-21.109557865168142,-20.582627164540686,-20.040389100543095,-19.48055954648107,-18.895257052860806,-18.280468415814095,-17.63833190275534,-16.9784071134688,-16.297518080647624,-15.602376377552996,-14.893411170538627,-14.171034372363522
mp-37923,Sm5AgS8,Tetragonal,I-4,False,0.02401717883928267,-2.113616748333333,14.0,-29.06441146390245,-28.87122816591508,-28.674875375239935,-28.46314902329113,-28.229407551685018,-27.88250302761196,-27.102083646906102,-26.30299749585589,-25.482119347226632,-24.623132588942127,-23.723915755849085,-22.79035064329467,-21.83765465480542,-20.866295878811208,-19.87675047849335,-18.86951398540485,-17.845068658586754
mp-1219159,Sm6Ge3S14,Trigonal,P3,False,0.0,-1.7649026378260866,23.0,-40.01494514945343,-39.770907026634745,-39.52503805257677,-39.25826648420859,-38.96014069877996,-38.4717842678052,-37.23292171695168,-35.969677021765236,-34.67737035514907,-33.258439704301836,-31.781761089920867,-30.26016323856886,-28.711749465433925,-27.13698946660471,-25.536404329670408,-23.910575167404723,-22.26008823493403
mp-1173568,Sm6MnS10,Triclinic,P1,False,0.045556715882351995,-2.1365008879665313,17.0,-35.58347080548239,-35.321777047519,-35.05488259623269,-34.76822644474774,-34.45388353962804,-33.998150165972426,-33.000265698499334,-31.977507803829237,-30.92807202801621,-29.84000215182935,-28.70656076781794,-27.52908241755336,-26.321050373822196,-25.08831371731548,-23.8330415670505,-22.555857478984983,-21.257367856024473
mp-557561,Sm6Si4S17,Triclinic,P-1,True,0.0,-1.7634376441666628,27.0,-47.00143434556202,-46.73474983308637,-46.46819773974809,-46.179420365199384,-45.856167699788564,-45.3057854271358,-43.84812113030467,-42.36509078094859,-40.85149059917355,-39.294327503496405,-37.68680279222146,-36.03160573285139,-34.34664886681746,-32.61373988800862,-30.747177947531107,-28.852687996540258,-26.93086237775143
mp-1205094,SmAgS2,Monoclinic,P2_1,True,0.004180638749988752,-1.5607053316666666,4.0,-6.158254296614688,-6.122514204320794,-6.087438734945401,-6.049255845291534,-6.005913222977121,-5.934390092612538,-5.75444883376842,-5.569704420217285,-5.379376900820191,-5.1750658334176,-4.95868005782824,-4.733981239519195,-4.504034551253836,-4.268962776032204,-4.02889263260273,-3.783955781288318,-3.5342831995571817
mp-557569,SmAsS,Orthorhombic,Pnma,False,0.000777266666666776,-1.7355025543749996,3.0,-5.097647319147247,-5.06242208651342,-5.028484303811902,-4.9924478572333415,-4.952497562861708,-4.896683432252157,-4.784638101510348,-4.668021601297324,-4.546230053401656,-4.41728555974257,-4.280223004575997,-4.068109789253889,-3.8464704242758643,-3.6212274368567137,-3.392466279075327,-3.160276627406719,-2.924748423507781
mp-972448,SmBS3,Orthorhombic,Pna2_1,True,0.01549880953000038,-1.5346867058333324,5.0,-7.55439712736451,-7.507944948568436,-7.463257113223307,-7.415612866964976,-7.362429459104415,-7.2694681541715,-7.01655474364772,-6.759230124362128,-6.496536199387217,-6.226244686324644,-5.947186160003529,-5.659782244155432,-5.367003908284335,-5.068897360580106,-4.765531607344789,-4.456989086862254,-4.143362525476238
mp-1219113,SmBiS3,Orthorhombic,Pnma,False,0.010728265249998259,-1.5036667795000027,5.0,-7.4314320659157875,-7.388506870608022,-7.333181122653361,-7.263889998661382,-7.188104124115524,-7.0719257491911005,-6.7953941700594465,-6.514190201671602,-6.227451098709121,-5.933024238202583,-5.629787870785641,-5.318199895258516,-5.001262374041195,-4.679047426086866,-4.351642713447177,-4.019151403016661,-3.6311640705457044
mp-15932,SmCrS3,Orthorhombic,Pnma,True,0.0010327324999979126,-1.6801462625000014,5.0,-8.286977807043678,-8.237954814789365,-8.189121828006002,-8.136227595360994,-8.076926708757433,-7.9770954765143856,-7.7166094387789315,-7.451012601671727,-7.1793261396546,-6.899284458830008,-6.609667348930945,-6.3108383935791075,-6.005703267154887,-5.69423873700242,-5.376438149994824,-5.052312430709176,-4.72187242747709