,pretty_formula,crystal_system,spacegroup,experimentally_observed,"energy_above_hull, eV/atom",Ef,total_atoms,Gf_400,Gf_500,Gf_600,Gf_700,Gf_800,Gf_900,Gf_1000,Gf_1100,Gf_1200,Gf_1300,Gf_1400,Gf_1500,Gf_1600,Gf_1700,Gf_1800,Gf_1900,Gf_2000
mp-1024070,Na4Zn3S5,Orthorhombic,Pnma,False,0.0018053035416665253,-1.136447210671874,12.0,-13.05777830617044,-12.848804596357319,-12.646245131523983,-12.436749268942755,-12.186067621863849,-11.866881140275307,-11.278796183493288,-10.681038250127125,-9.919659464787689,-8.657240539655216,-7.3884767458053116,-6.112903584899115,-4.830231681201763,-3.540288885190286,-2.2429956961684923,-0.9383190492948472,0.37371761051108265
mp-29308,Na5Co2S5,Tetragonal,I4mm,True,0.09077061647569362,-0.8898640451475698,12.0,-10.133238006028437,-9.924198352929178,-9.720624610871791,-9.51195517169355,-9.29142056780309,-9.002381129402995,-8.443988222805322,-7.874989552143598,-7.172932293072876,-6.152177227214247,-5.120499378972854,-4.077986667484055,-3.025628672290999,-1.963557954447495,-0.8857728491903991,0.21455661975882379,1.3243966949968211
mp-556086,Na5FeS4,Orthorhombic,Pbca,True,0.004588760625000354,-1.1116079310646545,10.0,-10.688002303567028,-10.514476202770485,-10.345152468722443,-10.171303693331996,-9.988206931058809,-9.749363256850582,-9.293783739600746,-8.829174518720642,-8.23119415290746,-7.318283937135462,-6.3989326108436835,-5.472777016354554,-4.539592331003238,-3.599251247896415,-2.6516979671284737,-1.6882597221101605,-0.7172299615905509
mp-29376,Na5InS4,Monoclinic,P2_1/m,True,0.0,-1.2210865086249996,10.0,-11.685107868176132,-11.481054029498596,-11.278831204509501,-11.072527966876766,-10.857844234717607,-10.58872156595637,-10.104713082655362,-9.613065785499698,-8.991937067202214,-8.056310690478282,-7.114711669835598,-6.166803794790448,-5.212392299163472,-4.251370604672005,-3.28370571288216,-2.309402890059559,-1.3285035250475623
mp-1220798,Na6Cd7S10,Monoclinic,Cm,False,0.012429586304348206,-1.0074123191547977,23.0,-22.23012181046136,-21.881476619881717,-21.539545947809373,-21.116547888972043,-20.673349678473024,-20.095261030750404,-18.981530749856823,-17.432367902284856,-15.448684203664577,-13.083396990316267,-10.70599895910454,-8.315596496331935,-5.911635094727117,-3.493763597396402,-1.06183873995721,1.3842216803580953,3.844361024425588
mp-5481,Na6CoS4,Hexagonal,P6_3mc,True,0.04818874958333286,-1.0736487433333315,11.0,-11.229731090435422,-11.009965884989743,-10.795674814293527,-10.577189014102425,-10.348861256966519,-10.064738144305327,-9.564007127851246,-9.053615396775792,-8.387278322789475,-7.342810894544939,-6.29015848828983,-5.229185816721721,-4.160277072033217,-3.0834361768427314,-1.9956367307845755,-0.8934560145469526,0.21657487643760476
mp-9266,Na6FeS4,Hexagonal,P6_3mc,True,0.046621199090909116,-1.087526443025078,11.0,-11.400039285635705,-11.18463718795693,-10.974448044533244,-10.759664109428838,-10.535018525199492,-10.253715275241206,-9.754590461335605,-9.245240078168013,-8.577086913109401,-7.531656376121433,-6.479199590459054,-5.419324234047599,-4.351788495037599,-3.276457414355995,-2.193273965114855,-1.093566943782033,0.014364403720225738
mp-27752,Na6Ge2S7,Monoclinic,C2/c,True,0.0,-1.1480374673850586,15.0,-16.693368602430105,-16.46959771583046,-16.25255842516379,-16.03000275453254,-15.795411658482077,-15.468649642629813,-14.769145369185125,-14.059653569885118,-13.193415412308681,-11.891419780928912,-10.573918570207777,-9.246980506861544,-7.910295304086837,-6.563697912307003,-5.207126914920067,-3.8405829563107257,-2.4641255286676866
mp-5055,Na6MnS4,Hexagonal,P6_3mc,True,0.0,-1.280068602339341,11.0,-13.493605445630788,-13.271565783282174,-13.05454837197053,-12.83294446042244,-12.601731788799514,-12.314427342518801,-11.809840276168062,-11.293655406529307,-10.621705532892477,-9.57209377159846,-8.514481516928775,-7.446693786291596,-6.363781300355445,-5.270958118029345,-4.169819282695347,-3.060425518063887,-1.942878940969777
mp-4907,Na6Sn2S7,Monoclinic,C2/c,True,0.00038428233333576145,-1.0768566819791667,15.0,-15.566688454549308,-15.3249547683695,-15.060536706728154,-14.787868161375531,-14.502291516094711,-14.123903436942532,-13.372319143624374,-12.610486143956521,-11.691809361542113,-10.394009815382933,-9.087155433521293,-7.770737754509501,-6.444456855849509,-5.108155979408931,-3.761777854307922,-2.4053334892365292,-1.038882376383448
mp-8389,Na6ZnS4,Hexagonal,P6_3mc,True,0.0,-1.2421188505681813,11.0,-13.026623813456997,-12.792922434302032,-12.56483718087958,-12.331932230350704,-12.079694728484103,-11.771819408533272,-11.247707226920458,-10.714521986798616,-10.007484993443065,-8.841600435900293,-7.669819338964338,-6.491730724810951,-5.3070793079937175,-4.115716655842661,-2.9175774500255685,-1.7126374269491578,-0.5009220075887804
mp-28807,Na7(Cu6S5)2,Monoclinic,P2/m,True,0.002005983462643357,-0.7204126951605229,29.0,-19.638951953881474,-19.211528304550512,-18.809591409964987,-18.403905062300005,-17.978907248171762,-17.416537321131145,-16.313833480362785,-15.187694807560172,-13.86551350362613,-12.086602976885409,-10.230680950008399,-8.277550460993588,-6.297054108763483,-4.289443628859878,-2.2551011203003455,-0.19446575534326627,1.8919450708991834
mp-28856,Na7Au5S6,Orthorhombic,Pbcn,True,0.002691107638888468,-0.9056765831752871,18.0,-15.495385653500925,-15.199899765839604,-14.917928078730824,-14.632249727321287,-14.333783215825854,-13.951919974926957,-13.24504244094038,-12.523379233340489,-11.615695537022539,-10.262447122542206,-8.86404425931542,-7.433835647312776,-5.989322394202098,-4.530488023120835,-3.0574244557458456,-1.5702686523108085,-0.06922653212540553
mp-16992,NaAg3S2,Cubic,Fd-3m,True,0.0,-0.4531672921874967,6.0,-2.4595188143005497,-2.3747305666183047,-2.295557069554677,-2.2157235821469254,-2.131851589182568,-2.020145793255769,-1.7998787215915852,-1.5743465976098356,-1.318655081480908,-0.9765708209464661,-0.6185686215707502,-0.25428849412110477,0.1162222505136219,0.4928737530118923,0.8755562586173848,1.264150527351008,1.658523315272964
mp-5942,NaAsS2,Monoclinic,P2_1/c,True,0.0,-0.7070754651562492,4.0,-2.733252740488629,-2.6890974425622733,-2.6468722492355083,-2.6032072523582586,-2.55629266429323,-2.4832569556475868,-2.3039599304620904,-2.1220746026191133,-1.9129592808128573,-1.6394328834061396,-1.3631161225294495,-1.0163885835337902,-0.6616345043221905,-0.30462314143979974,0.05468409703499688,0.4163089424982198,0.7802535988051762
mp-1204074,NaAuS,Orthorhombic,Ccce,True,0.0,-0.8322100137931029,3.0,-2.367540522401165,-2.3210681737650773,-2.2770005471761343,-2.2324065218290787,-2.1857352035938593,-2.125196214327748,-2.010506141009599,-1.8933602529385865,-1.7492369644876153,-1.5410150910546982,-1.3240864635714091,-1.1011427773214044,-0.8756978675698068,-0.6477562431865875,-0.4173396157728426,-0.1844765124021226,0.05079339214954004
mp-15011,NaBS2,Trigonal,R-3c,True,0.008983460416668088,-1.0183535234698269,4.0,-4.007256959227554,-3.9743879835779325,-3.9449871754392354,-3.915159156381032,-3.882804974647256,-3.8248893448208143,-3.66116635502808,-3.4952447604583665,-3.302439339723476,-3.045531699687031,-2.7860855488001914,-2.5239375901006476,-2.2589867010727107,-1.991173252942571,-1.7204705727397414,-1.4468672933735338,-1.1703720935092434
mp-1221125,NaBiS2,Trigonal,R-3m,False,0.0,-1.0003154465948274,4.0,-3.8384191672086416,-3.7768721613631153,-3.7046284269306753,-3.6209485164546167,-3.5337868543513324,-3.420449140849171,-3.2009029687643507,-2.9788970114081756,-2.7298413990015034,-2.416593397836885,-2.1007643921700083,-1.7822273601072283,-1.4609122720488532,-1.1367854099844035,-0.8098387566929901,-0.48008167369459365,-0.09702068906115002
mp-37496,NaCe5S8,Tetragonal,I-4,False,0.011490233571429087,-2.304744783749998,14.0,-31.42559104203645,-31.153609673457236,-30.88434884691067,-30.60598590024709,-30.311934205901128,-29.91097846307849,-29.08251812428531,-28.21860705909244,-27.298084076125676,-26.30220835229155,-25.292466237123016,-24.268763467512535,-23.231139958257828,-22.179722812143346,-21.11471768398122,-20.03634856052475,-18.94487694111138
mp-1221073,NaCeS2,Trigonal,R-3m,False,0.0,-2.08464438640625,4.0,-8.12953995002751,-8.055810941019466,-7.98322227654468,-7.908383319842415,-7.829445935345646,-7.723504391453936,-7.510358379237123,-7.289119581800774,-7.036105006082338,-6.717991164889367,-6.396455774031678,-6.071436070308686,-5.742912809216829,-5.410895802828024,-5.075419527573243,-4.736526510749531,-4.394272070396179
mp-5693,NaCrS2,Trigonal,R-3m,True,0.0,-1.1918627540948261,4.0,-4.6353787507209265,-4.582139454774953,-4.530793988359908,-4.477916476076919,-4.42164530876203,-4.339060244787343,-4.149965120944824,-3.9579718017153853,-3.7383743371001668,-3.453917022463592,-3.1661127811606935,-2.8747402761192973,-2.5796330897001223,-2.2806621522836323,-1.9777251314704118,-1.6707391464629815,-1.3596309979145067
mp-999490,NaDyS2,Trigonal,R-3m,True,0.0,-2.134065940156251,4.0,-8.27875546756305,-8.192871213582062,-8.10845896190497,-8.02227006675409,-7.932552780601986,-7.816460448388625,-7.5938425098494315,-7.368321193770655,-7.115160493667968,-6.797064284114996,-6.475494703370645,-6.150172374252881,-5.820874911873624,-5.4851734072600715,-5.138436326582535,-4.78757773157346,-4.43269128820187
mp-3613,NaErS2,Trigonal,R-3m,True,0.0,-2.1334915747395833,4.0,-8.278770221367642,-8.19337644287441,-8.109323040007354,-8.023363439849852,-7.933754186318742,-7.817660025089847,-7.5949552702313925,-7.369312935625759,-7.1160788928007435,-6.7980471857863645,-6.476775304450587,-6.1520864782341675,-5.8238557467191505,-5.491993424646266,-5.15586445432201,-4.805239300028447,-4.451197791386981
mp-1007910,NaEuS2,Trigonal,R-3m,True,0.0,-1.7493943451562508,4.0,-6.743860628477048,-6.659086720210643,-6.575880165857196,-6.491032740429814,-6.402845554358262,-6.288532065553428,-6.068015300318603,-5.844809698664573,-5.5924048850340995,-5.275381709696516,-4.955382649823511,-4.632310740006901,-4.306119788549255,-3.9767968060507677,-3.539547539088023,-3.106596719445813,-2.6712068994485456
mp-8260,NaGdS2,Trigonal,R-3m,True,0.0,-2.08604831140625,4.0,-8.121909814457993,-8.043995376510415,-7.967545685852999,-7.889207417224204,-7.807189438736334,-7.698635767454552,-7.483413462433353,-7.265206938290974,-7.019375540152151,-6.708718494199567,-6.39479432673172,-6.077437667925232,-5.753936626751173,-5.420691127734176,-5.084019525628266,-4.743962274869423,-4.400573657066401
mp-5694,NaHoS2,Trigonal,R-3m,True,0.0,-2.13460306265625,4.0,-8.278561973214867,-8.192247428619185,-8.107398667744201,-8.020793992006094,-7.930722074668228,-7.814324859934697,-7.5914165489027985,-7.36559553245652,-7.112124767680994,-6.793708129149855,-6.47180671869147,-6.146147377707005,-5.816504612016782,-5.482687166169272,-5.137559490166466,-4.785141931691998,-4.429024036903517
mp-1195769,NaIn3S5,Orthorhombic,Pbam,True,0.0029749651388844,-0.8941908153125048,9.0,-7.638505726791273,-7.4778740475888,-7.3123012772338765,-7.142009962519424,-6.963389033741191,-6.719859914899773,-6.211485462231517,-5.697740766942225,-5.153486215955358,-4.541241242457746,-3.922423086665992,-3.2967915522628477,-2.6642388213146067,-2.0247183074602564,-1.3782474696985574,-0.7248818327646909,-0.064692745182235
mp-20289,NaInS2,Trigonal,R-3m,True,0.0,-1.0899044539062483,4.0,-4.148013274168084,-4.068073269224802,-3.986983097336311,-3.903961853824579,-3.8173635070765615,-3.7044429722244807,-3.4851543684876223,-3.263240150594088,-3.0141114851952713,-2.7006287478753235,-2.384414723625797,-2.065352754858379,-1.743384212709243,-1.4184805613205764,-1.0906420749157588,-0.7598853700284973,-0.42623674464315364
mp-675230,NaLaS2,Tetragonal,I4_1/amd,False,0.0,-2.12431462015625,4.0,-8.347509913039467,-8.288861232237188,-8.231452393299364,-8.172024386142969,-8.10906073297162,-8.019632900713155,-7.823545762590069,-7.624423620249677,-7.395237882868117,-7.095091865346529,-6.791796879390466,-6.48526632389708,-6.175467480765873,-5.862394615610765,-5.5460687312658,-5.226521990722684,-4.903798311284847
mp-8452,NaLiS,Tetragonal,P4/nmm,True,0.0,-1.4071292564930549,3.0,-4.031191148736817,-3.965806485456695,-3.8983802572361013,-3.8299156335739735,-3.7590762614606392,-3.674179551528831,-3.5350260416305934,-3.393386660494029,-3.2248310283789685,-2.992328130139814,-2.7575733672113287,-2.5205077482419402,-2.28110777108681,-1.9669179767452576,-1.6302842722891757,-1.2917896751274025,-0.9514406942589062
mp-9035,NaLuS2,Trigonal,R-3m,True,0.0,-2.132265923072916,4.0,-8.359822155893298,-8.296509850963162,-8.234921400956502,-8.171765666443768,-8.105256697689931,-8.012519856010556,-7.8133890346830706,-7.61150200895172,-7.382171484567243,-7.088157303352061,-6.7909848258276035,-6.490444115657567,-6.186381192369066,-5.878675277786831,-5.567234403816778,-5.251982944675161,-4.92596580227441
mp-7937,NaNbS2,Hexagonal,P6_3/mmc,True,0.0,-1.4532234603448293,4.0,-5.646805148230829,-5.584887884190375,-5.524904870471648,-5.463499672521499,-5.398879085591169,-5.30819023603742,-5.111307437928476,-4.911917178743648,-4.685385022190866,-4.394530923063481,-4.100938281992784,-3.8044593484744667,-3.5050012914371056,-3.2025055185374214,-2.8969412110827975,-2.588294929121478,-2.276562914152361
mp-1210002,NaNbS6,Monoclinic,Cc,False,0.0,-1.0070242907974132,8.0,-7.921910102893397,-7.842451441045136,-7.762804690733205,-7.677995076855569,-7.585272589355036,-7.417534372586308,-6.935252483198048,-6.450003658391709,-5.936532084607866,-5.357231571003108,-4.773390906713782,-4.184656550621403,-3.5907993105007314,-2.991665726596544,-2.3871682507602756,-1.7772582380472226,-1.161915734288769
mp-999470,NaNdS2,Trigonal,R-3m,True,0.0,-2.069414325781249,4.0,-8.056226338697936,-7.979225385368182,-7.903247659921431,-7.824866250528279,-7.7421884551087725,-7.6322453197999485,-7.414786787006047,-7.193371863250786,-6.941284959731343,-6.622088115502871,-6.293612852666325,-5.96083138755161,-5.623779406473432,-5.282514397308233,-4.937114366569387,-4.587658116622594,-4.234236204145281
mp-1220912,NaPrS2,Trigonal,R-3m,False,0.0,-2.050662141822915,4.0,-7.975619075172493,-7.8973508939203345,-7.820209583604502,-7.740760977381861,-7.657117555325123,-7.546315545723994,-7.328123546732307,-7.105183323851864,-6.851987766281602,-6.499434768390975,-6.1416236659307195,-5.779935443433064,-5.414379876449376,-5.044989578523298,-4.671816645404879,-4.294925369432349,-3.9143835058114043
mp-5414,NaSbS2,Monoclinic,C2/c,True,0.0,-0.7950349764062512,4.0,-3.0607468649018013,-3.0102765356808896,-2.961622303700912,-2.9114173701033925,-2.8578084171686413,-2.7778565475191614,-2.569461675057349,-2.3572907505469622,-2.117689800980378,-1.8135347483997446,-1.5064639242546178,-1.196376217414679,-0.8832223268909036,-0.5669830447002777,-0.24767004580204421,0.051829658908266296,0.41928735656315475
mp-999460,NaScS2,Trigonal,R-3m,True,0.0,-2.001966637656251,4.0,-7.857510073049173,-7.79918746833278,-7.74260633785893,-7.684416465657674,-7.622802881939055,-7.53487229226904,-7.340455480633455,-7.143192295137616,-6.9184026965459875,-6.6288600002779265,-6.3361040768823305,-6.039943645772491,-5.74024338222512,-5.434432386284365,-5.12455684604622,-4.803793972955523,-4.478346154544232
mp-999455,NaSmS2,Trigonal,R-3m,True,0.0,-2.0564469153448273,4.0,-8.002879040240284,-7.924000666306669,-7.844909058629897,-7.762213580449228,-7.674103407696837,-7.557718411715748,-7.332929797282592,-7.103421979015608,-6.84429519440622,-6.51660124775806,-6.181058120207168,-5.838140955999711,-5.490853778497597,-5.139263403452069,-4.783448873807035,-4.423498319802995,-4.059503334547909
mp-27682,NaSnS2,Trigonal,R-3m,True,0.041969124687501136,-0.8115201151562577,4.0,-3.0840071489079035,-3.021866596473931,-2.947158558340539,-2.869867533778495,-2.789111340477758,-2.6821262378209485,-2.4688456164166865,-2.253004675979345,-2.010010437438183,-1.7027149849330838,-1.392737994164003,-1.079960734681558,-0.7643183590387252,-0.44578336780822614,-0.12435085306077198,0.19996360510046252,0.5271357815521789
mp-999126,NaTbS2,Trigonal,R-3m,True,0.0,-2.131462073906249,4.0,-8.27752826444328,-8.193721352659303,-8.111286945848033,-8.026824042943392,-7.938472071211965,-7.823324262622781,-7.601207255439534,-7.375765043489676,-7.122316551107138,-6.8036361301418085,-6.481262614712053,-6.154993323495296,-5.823454397281026,-5.4817481495662514,-5.13404130531799,-4.782411941400575,-4.426941286616625
mp-7942,NaTiS2,Trigonal,R-3m,True,0.0,-1.5911140724281614,4.0,-6.207009687906059,-6.146774374902357,-6.088056667146015,-6.027547805888418,-5.963502262185335,-5.873081672420992,-5.676124075594951,-5.47622889902173,-5.247401909549642,-4.95161318893478,-4.653005084795016,-4.351406008723773,-4.046697218886294,-3.73879213931491,-3.4276309312620663,-3.113166988998948,-2.7906652486401917
mp-1220988,NaTl3S2,Orthorhombic,Pmc2_1,False,0.03588039305555535,-0.6472081960632222,6.0,-3.5758565170901058,-3.4774597385247015,-3.375029578743953,-3.252686695033548,-3.12533831607902,-2.969584024507703,-2.7050259324542196,-2.4352494274571663,-2.1355995851401124,-1.7689247757922653,-1.3968756354178282,-1.0193818571181925,-0.6364410031166017,-0.2480931840690097,0.3031804922082113,0.9929150325100711,1.686537642707627
mp-9076,NaTmS2,Trigonal,R-3m,True,0.0,-2.1385847689062505,4.0,-8.293814305190095,-8.20753220486167,-8.122905555041525,-8.03665150774438,-7.946957166041338,-7.830891923999172,-7.608286565603706,-7.382808922584655,-7.129819376497282,-6.8121326999822704,-6.491337475823581,-6.167292172100101,-5.83991328561521,-5.509153624761492,-5.1749968808737945,-4.829500920421051,-4.478718884938434
mp-10224,NaVS2,Trigonal,R-3m,True,0.04517269142857039,-1.2609313115948275,4.0,-4.893003661297765,-4.834651706429307,-4.778024642914856,-4.719786764811936,-4.65815315881605,-4.570262659839694,-4.375976108354161,-4.1789602996586295,-3.954559032419831,-3.6655704963899196,-3.3735573635895237,-3.078350118473132,-2.7798383106502573,-2.477950910611222,-2.1726456989275444,-1.8638957620505376,-1.55168594074323
mp-10226,NaYS2,Trigonal,R-3m,True,0.0,-2.13481260890625,4.0,-8.399102599413506,-8.34296914524393,-8.288375061362911,-8.231995006133303,-8.172035774806348,-8.085643457308269,-7.892686149124098,-7.6968472284415395,-7.473490186107458,-7.185433940484676,-6.894266037926613,-6.599842873651095,-6.30207887160043,-6.000923730875608,-5.694892520745867,-5.377409123122959,-5.056449258181219
mp-1220696,Nb2AgS4,Trigonal,P3m1,False,0.0,-1.1584009473809505,7.0,-8.092967785011382,-8.064978127450933,-8.040724239689004,-8.014192184027973,-7.9820979745599505,-7.8988723088175234,-7.604329956842948,-7.305884597475132,-7.002622940825797,-6.687648535031064,-6.363556656220315,-6.03336748900292,-5.696973509822147,-5.354321153419962,-5.005397685197973,-4.650218192277981,-4.2888087448448395
mp-2647093,Nb2BS,Hexagonal,P6_3/mmc,False,0.006756627812501748,-0.989537052916666,4.0,-3.877430401538795,-3.856618774769017,-3.842764977115595,-3.8305247002626235,-3.8170403253036995,-3.7897745716929574,-3.7080078788030755,-3.6231895988073552,-3.534849673296301,-3.4426899558039996,-3.346522068965166,-3.246231946267815,-3.14175422204966,-3.0330536236544194,-2.92011643349327,-2.8029437216419293,-2.6815395028282882
mp-1220691,Nb2CuS4,Trigonal,P3m1,False,0.002273488163271331,-1.201410011428571,7.0,-8.361947721817963,-8.326176083613733,-8.294228311803352,-8.260083213675461,-8.22046198547484,-8.129806725469937,-7.827946713730478,-7.52230392053963,-7.2119640195785895,-6.8962978544179965,-6.570623922413333,-6.233081856792923,-5.8893785092915305,-5.539457205359522,-5.18330313753744,-4.820929320086016,-4.452359750329048
mp-1220734,Nb2FeS4,Trigonal,P-3m1,False,0.08535596571428261,-1.1573166799999999,7.0,-8.028865919022028,-7.986425155662166,-7.9471034859335425,-7.904641338102159,-7.855493545765751,-7.753785059449593,-7.4389026033857135,-7.118806055304043,-6.790156877868508,-6.455873616365051,-6.115569736278908,-5.768996520317599,-5.4159987691198666,-5.05648042377581,-4.6903893653267765,-4.309050210873316,-3.9207245076174417