,pretty_formula,crystal_system,spacegroup,experimentally_observed,"energy_above_hull, eV/atom",Ef,total_atoms,Gf_400,Gf_500,Gf_600,Gf_700,Gf_800,Gf_900,Gf_1000,Gf_1100,Gf_1200,Gf_1300,Gf_1400,Gf_1500,Gf_1600,Gf_1700,Gf_1800,Gf_1900,Gf_2000
mp-1105549,BaHfS3,Orthorhombic,Pnma,True,0.0,-2.139200685999998,5.0,-10.67890970049679,-10.653517631398508,-10.626525652240261,-10.594807038818029,-10.556453756719929,-10.477843746643119,-10.239365581848638,-9.988311208551448,-9.732396416956766,-9.47143780210833,-9.205345899450906,-8.934092521864624,-8.657683411097857,-8.37614611959087,-8.089520633590784,-7.7978510434517325,-7.501185509004534
mp-28007,BaHgS2,Orthorhombic,Pmc2_1,True,0.0,-1.4043334581249995,4.0,-5.483075368925256,-5.434340826811588,-5.384630238082295,-5.264068020130134,-5.109538482845922,-4.928231764453553,-4.64034139962549,-4.341151533508039,-4.038498061985114,-3.732278205746317,-3.4224492059162905,-3.1090135944180357,-2.791991511108254,-2.4714145331000656,-2.1473233554076394,-1.8197553231753538,-1.4887481351234335
mp-8347,BaMnS2,Orthorhombic,Pnma,True,0.012351604375003156,-1.5850627757327578,4.0,-6.2987217287290385,-6.273005184719038,-6.245680371468135,-6.214000275576733,-6.176278444640996,-6.109949096275391,-5.934767355036824,-5.7446617149341135,-5.549458018475006,-5.349152983680295,-5.143136924172932,-4.9296452578167465,-4.70400516701391,-4.471610720456541,-4.23416297487307,-3.9917842627115956,-3.7445889785518087
mp-35143,BaNbS3,Hexagonal,P6_3/mmc,False,0.003093184153834194,-1.7459541724999994,5.0,-8.693207493410142,-8.663433582120021,-8.632424584317636,-8.597070358687498,-8.55547634441466,-8.474033955793214,-8.23313694823685,-7.980082450113217,-7.722584178766451,-7.460456656379231,-7.193603163382586,-6.921986184781849,-6.645602134450595,-6.36446301837109,-6.078595349193517,-5.788028707244555,-5.4927884508832765
mp-7486,BaNiS2,Tetragonal,P4/nmm,True,0.03956715291666324,-1.4371578087499999,4.0,-5.6785521428494246,-5.6459383621283585,-5.611573284752803,-5.572379275983054,-5.52741818626028,-5.454372976526925,-5.273527350911852,-5.080210021074289,-4.882283830092021,-4.679663617973713,-4.472321135871469,-4.260266170722026,-4.043528190256887,-3.822144990172367,-3.5885799218540946,-3.3473021074065956,-3.1013673312629004
mp-4009,BaPdS2,Orthorhombic,Cmcm,True,0.0,-1.4706144549999998,4.0,-5.853101845634616,-5.830989619609886,-5.807896164816865,-5.781157382298618,-5.749134495455836,-5.689289705527385,-5.521872514434527,-5.342209560975428,-5.158174052533201,-4.96969119342185,-4.776746208390405,-4.579359248680937,-4.377566000608149,-4.171400114146223,-3.9608971021566663,-3.7386206092086347,-3.509648495705517
mp-558588,BaPt2S3,Tetragonal,P4_12_12,True,0.0,-1.229481815416658,6.0,-7.372699238047576,-7.350745038514363,-7.329113575297029,-7.303283747895078,-7.270612906774627,-7.197061675139268,-6.962776291153578,-6.714903317668378,-6.461070568556701,-6.201041478625562,-5.9347042337573805,-5.662015992462676,-5.382980017332635,-5.097627609363665,-4.806008928556423,-4.508178956196949,-4.20419890430297
mp-27802,BaSn2S3,Monoclinic,P2_1/m,True,0.0,-1.2591107420833287,6.0,-7.481719586911674,-7.440954552594689,-7.37193579193099,-7.296768104819108,-7.214608085130877,-7.091594622121601,-6.80799003417558,-6.511040381474828,-6.208454319473972,-5.900059541673087,-5.585800201203388,-5.265681132379925,-4.939747055015209,-4.6080686544659155,-4.270723037926566,-3.927800425321327,-3.5793806844175338
mp-1202711,BaSn2S5,Orthorhombic,Pccn,True,0.0029324694791661443,-1.1445934543749994,8.0,-9.100251614388352,-9.050852533703802,-8.972138557279843,-8.88540531474056,-8.789330997303567,-8.627929503223141,-8.201762022173805,-7.762019739198637,-7.316100621118593,-6.863619288615361,-6.404372589072693,-5.938262461498535,-5.465265445128505,-4.985404791613302,-4.498729243419476,-4.005311417974708,-3.5052230852125845
mp-1227793,BaSn3S4,Monoclinic,Pm,False,0.04295755593749728,-1.0734327281249998,8.0,-8.498068407688057,-8.446149491483403,-8.352929360422383,-8.25198223665641,-8.14236564497827,-7.9788143210781115,-7.601549505415548,-7.209690040182444,-6.810742717405741,-6.404409736147192,-5.990566194295798,-5.569178807767846,-5.140278528401939,-4.703939911160177,-4.2602505646541005,-3.809323527102201,-3.3512611431387818
mp-12181,BaSnS2,Monoclinic,P2_1/c,True,0.0,-1.5429662212499995,4.0,-6.122685725761368,-6.094903861988556,-6.051915760378685,-6.004356798577401,-5.951482639535584,-5.870836326073695,-5.682721254500725,-5.482510702988832,-5.278115190420328,-5.069487904733615,-4.856642054302119,-4.639620591839647,-4.418482005132628,-4.193293109932309,-3.964120512016196,-3.7310316130141263,-3.4940838038264577
mp-1183370,BaSnS3,Orthorhombic,Pnma,True,0.01567484261111307,-1.394226731999997,5.0,-6.900323421890358,-6.860760659593933,-6.805461074764102,-6.744655459909286,-6.677360276653258,-6.570056072315964,-6.303195678851504,-6.024124936862572,-5.740599020914644,-5.452464582536926,-5.159661177229113,-4.862180310051466,-4.560046378501957,-4.253302481478853,-3.9420010423956704,-3.626200661634009,-3.305954681177342
mp-4001,BaTaS3,Hexagonal,P6_3/mmc,True,0.0,-1.7820520719666653,5.0,-8.895168859480933,-8.870564179820423,-8.84462698917753,-8.814276166291691,-8.777639951819687,-8.701125306513608,-8.465139459384087,-8.21698990310409,-7.964399682892562,-7.7071895395153796,-7.445272081278372,-7.178623266783799,-6.907266457099106,-6.631233350386687,-6.350563932893664,-6.065295039960436,-5.77546239425142
mp-27499,BaTeS3,Orthorhombic,Pnma,True,0.0,-1.1889565073333344,5.0,-5.92936389032967,-5.904572485581518,-5.878427841240317,-5.847807378824175,-5.790905670544002,-5.6870591480541,-5.422947517952288,-5.146144635558583,-4.864487553450582,-4.577867489670424,-4.228147614787499,-3.889041255906946,-3.5457140241869016,-3.1981768891790843,-2.8464579181794925,-2.4905877279453286,-2.130597895418866
mp-7073,BaTiS3,Hexagonal,P6_3/mmc,True,0.006230596999996507,-1.9448896521666676,5.0,-9.660839990323387,-9.623826281879513,-9.585160841849016,-9.54178120472093,-9.49184048548484,-9.401744608462296,-9.151851053998337,-8.88936989029581,-8.62065503783924,-8.344671145774045,-8.06388044151783,-7.778221572173665,-7.487665040851796,-7.192194869910088,-6.891808551943798,-6.586502501502535,-6.271570771561118
mp-3451,BaVS3,Orthorhombic,Cmc2_1,True,0.0,-1.6689573994999995,5.0,-8.293880372156222,-8.260244178957876,-8.225163540279551,-8.185549043416424,-8.139514418997814,-8.053442789873543,-7.807714437860376,-7.549606799145822,-7.2868118260328245,-7.01912227566286,-6.7464206998563,-6.468647818577271,-6.185782426380285,-5.897824092081212,-5.604787927594373,-5.306690039649501,-5.003544385869816
mp-540771,BaZrS3,Orthorhombic,Pnma,True,0.0,-2.1071206025000064,5.0,-10.50200232275589,-10.472752467320749,-10.44212864368189,-10.40700930978796,-10.365463629755343,-10.283840524226267,-10.042487109240444,-9.7886507644999,-9.527698728621527,-9.26082708568881,-8.989251237187867,-8.712933668124029,-8.431861464496075,-8.146038340842,-7.855478372645592,-7.5601935209144635,-7.260198779702357
mp-1227344,Be3ZnS4,Trigonal,R3m,False,0.04498180499999904,-1.201244294375,8.0,-9.543252633434614,-9.509955286033676,-9.484702217894629,-9.458237159382598,-9.416438384629643,-9.323117687936064,-9.01769100323714,-8.707332310829102,-8.372248822493262,-7.948659294269138,-7.5187459184127325,-7.08215411737503,-6.6222967158246036,-6.142810480466309,-5.6569446512533546,-5.1647262426699605,-4.666203704962712
mp-1227366,BeZn3S4,Trigonal,R3m,False,0.042931992499998906,-1.0812435581249993,8.0,-8.439604198450029,-8.365032168578148,-8.296193177879019,-8.222695028853343,-8.111745736007322,-7.947721948281879,-7.5704355160759915,-7.1873630574016,-6.741512219340836,-6.043140209506001,-5.339901573368628,-4.6314603891292965,-3.9121513864158963,-3.183103170042843,-2.4486910617377067,-1.70890476448551,-0.963767854200043
mp-1227316,BeZnS2,Trigonal,R3m,False,0.058248947499999204,-1.1269518774999994,4.0,-4.439810498410833,-4.413159275452547,-4.389952382102923,-4.365277701578414,-4.327406806038589,-4.2633868062937506,-4.093024648427466,-3.9199829820167778,-3.7250655217775446,-3.444891258622723,-3.1619193769841965,-2.875977252024856,-2.58150177231882,-2.2796842807459,-1.9749309177262955,-1.6672458626273174,-1.356647121989056
mp-1104502,Bi(Mo3S4)2,Trigonal,R-3,True,0.07273074333333351,-0.8888493313333328,15.0,-13.586576102164537,-13.60340462276844,-13.61733837251255,-13.61736480069495,-13.605847071530894,-13.491384727171962,-12.95346343350687,-12.406818022806489,-11.849584724058207,-11.280503885693246,-10.698736559037355,-10.10370121429023,-9.49501967844856,-8.872427922819778,-8.235745859505858,-7.584857016241223,-6.8691668975481335
mp-1214399,Bi2(Pb2S3)3,Orthorhombic,Cmcm,False,0.00018490470588261587,-0.7485805057352931,17.0,-12.519559181524503,-12.408968585491206,-12.28095467085646,-12.076011620670418,-11.85452240865146,-11.515020455204429,-10.69775565481768,-9.869989609438402,-9.030182154906672,-8.1774259396912,-7.311146690507236,-6.430996303955414,-5.536813963067438,-4.6285447220017275,-3.7062210982312784,-2.769935995280811,-1.7187924735673832
mp-629690,Bi2(PbS2)3,Monoclinic,C2/m,True,0.0,-0.7297814290909085,11.0,-7.926498003319171,-7.862274518221397,-7.777897350077568,-7.644156773369579,-7.499862211940437,-7.277414415522882,-6.7370061734665665,-6.190140823567122,-5.635771857450086,-5.073272018859564,-4.502239998029831,-3.9224296095914113,-3.33372444978934,-2.7360828382985716,-2.1295213347990263,-1.5140985901400725,-0.7888688898874143
mp-680181,Bi2Pb2S5,Orthorhombic,Pnma,True,0.01754378277777935,-0.6998036108333321,9.0,-6.243332926565561,-6.197347039941672,-6.130297348790197,-6.02307282473693,-5.907291708333107,-5.7266438590874245,-5.281303031303292,-4.830853141392502,-4.374412232909078,-3.9114464146889176,-3.441612031472639,-2.964696870567389,-2.4805993326226705,-1.989282159152264,-1.4907565905717277,-0.9850698601719827,-0.37125999523496134
mp-641924,Bi2PbS4,Orthorhombic,Pnma,True,0.005557744285715316,-0.6922504507142843,7.0,-4.811376360941255,-4.777209230573575,-4.721068174196775,-4.6339408605805605,-4.540254346984376,-4.3949876026928925,-4.03829534696327,-3.6778420748234613,-3.3129103817559695,-2.943059741688492,-2.5680041538679923,-2.1875653782782507,-1.8016566199732031,-1.4102450423054762,-1.013336566426279,-0.6109670080680729,-0.10215813622900782
mp-23012,Bi2Pd3S2,Cubic,I2_13,True,0.0,-0.5218398214285693,7.0,-3.613095853384115,-3.59077406735694,-3.551223134301835,-3.4916575976322317,-3.4272896107365054,-3.334182249237099,-3.1315885378272537,-2.922841728336496,-2.7072928206625226,-2.4845603652734294,-2.2544195108176375,-2.016749020958253,-1.7715035579705474,-1.5186616859430089,-1.258218961721516,-0.967792172173942,-0.5615318627921901
mp-977592,Bi2Rh3S2,Monoclinic,C2/m,True,0.0,-0.5328978171428561,7.0,-3.7527155413766353,-3.7467991307459148,-3.7237468518352568,-3.6804871932309156,-3.632039532242086,-3.5543394635356225,-3.366549842348368,-3.171951062552659,-2.969856812546997,-2.759873205633075,-2.541766062584516,-2.315429693522427,-2.080849853638073,-1.8380610742687402,-1.587155300299898,-1.3282357154486686,-0.9604038938642604
mp-27910,Bi2Te2S,Trigonal,R-3m,True,0.0,-0.5748336551666668,5.0,-2.8220653707436156,-2.803410721175659,-2.7666665517638354,-2.7107696714958096,-2.612070842663852,-2.48399158786904,-2.298441442179948,-2.1074768229728633,-1.9109262840950123,-1.7087069543518645,-1.3845942186466464,-1.0860170075461753,-0.7832945830351363,-0.4764368782347237,-0.16547351508672392,0.14954623390205768,0.5695992386981903
mp-1103410,Bi3Te2S,Trigonal,P-3m1,True,0.04341830249999834,-0.4369670768055555,6.0,-2.541056015658005,-2.515357739369586,-2.4609237965364956,-2.3778410568090416,-2.251437021453984,-2.09486099585349,-1.879866203713929,-1.6584227555878401,-1.430315795503203,-1.1954486763890184,-0.8375930893357726,-0.504183002720799,-0.1655528186906583,0.1782661617582466,0.5272227421947093,0.8812422491525833,1.3917927238659207
mp-1227434,Bi4(TeS)3,Trigonal,R3m,False,0.011858976999998383,-0.5849256737499993,10.0,-5.759722467871944,-5.719453080613787,-5.640607389844503,-5.522133792002393,-5.337176367509697,-5.0890014397983485,-4.67554115357667,-4.2527526717311375,-3.820102398738099,-3.37729244731549,-2.7498717216948148,-2.1589114840564996,-1.559854632106763,-0.9527018581231381,-0.33749789596172164,0.2856711465302766,1.1187678189455106
mp-1227567,Bi4PbS7,Monoclinic,Cm,False,0.003211824583333467,-0.6799419714583337,12.0,-8.143642402029307,-8.095269286492925,-8.00203819745677,-7.856023169604162,-7.698887134162206,-7.451877139476203,-6.835283589014237,-6.212516051448368,-5.58230426967209,-4.94386055663259,-4.296670565330139,-3.6404117884089295,-2.974925440381277,-2.3001502697912706,-1.6160927996769807,-0.9228132439448764,-0.018338882307475046
mp-1102836,BiIrS,Cubic,P2_13,True,0.0,-0.43524989749999915,3.0,-1.3395286046096948,-1.3422026532724367,-1.3356578555519976,-1.3191706876789286,-1.3006829227771555,-1.2683938183986183,-1.1820168522305718,-1.0932638764607203,-1.0018274320101388,-0.9075174634679057,-0.8102176916966721,-0.7098556517479326,-0.6064036957547172,-0.4998549318511314,-0.3902196709024093,-0.27752229425996244,-0.11127441534314197
mp-1103098,BiRhS,Cubic,P2_13,True,0.0,-0.5774719074999991,3.0,-1.7218430775862208,-1.7132732541978415,-1.695265897583766,-1.6670456624478844,-1.6365315204423907,-1.5919237655497593,-1.492941057609908,-1.3913056131158776,-1.2867224101551393,-1.1790200490663705,-1.068094687878622,-0.9538956266845857,-0.8364118005058234,-0.7156539367955066,-0.5916551478906005,-0.4644553616005149,-0.2835900292468647
mp-1227486,BiSbS3,Orthorhombic,Pnma,False,0.0023040867500006,-0.6039943149999984,5.0,-3.0343649743234695,-3.019292736351375,-2.993849276716479,-2.956493609930619,-2.914653867825373,-2.834353531855527,-2.573660607318188,-2.3092384453099077,-2.0414700900132035,-1.7700270361971615,-1.4947078848089532,-1.215394279272319,-0.9320349576563061,-0.6446160151798477,-0.35315774590993243,-0.08056219739611414,0.3114429348516765
mp-14422,Ca(AlS2)2,Orthorhombic,Fddd,True,0.0,-1.6957035082142846,7.0,-11.818031220153042,-11.78050583803855,-11.745900554892918,-11.707913305330278,-11.661898233722061,-11.562941061697861,-11.234941132031455,-10.893260509321182,-10.538538476617571,-10.176374824996063,-9.807770800425903,-9.432637295916733,-9.050969394534619,-8.662804736908441,-8.247157380169103,-7.759866632819954,-7.267130508871333
mp-30958,Ca(BS2)2,Cubic,Pa-3,True,0.04262699456666752,-1.167237050595237,7.0,-8.111150576379462,-8.080019515219327,-8.055257793842681,-8.029618122217343,-7.998000688141187,-7.915325384358484,-7.621220423415511,-7.322812392893464,-7.0125237545753105,-6.695761523457307,-6.373373553789784,-6.045142221196254,-5.710954819967332,-5.370759857706039,-5.003500914267013,-4.564942675155217,-4.12122925999325
mp-33560,Ca(CeS2)2,Tetragonal,I-42d,False,0.032174631428574685,-2.3843357037500033,7.0,-16.390806625380225,-16.289387097205466,-16.189681262858862,-16.08545131564762,-15.972099075747698,-15.804803543536682,-15.423284137447762,-15.025673300894663,-14.606397952311637,-14.178654918582808,-13.743520068675803,-13.3009768457376,-12.85107630008305,-12.393905821006646,-11.908531287165939,-11.350825172841358,-10.787024876403475
mp-1393946,Ca(CrS2)4,Trigonal,R-3m,False,0.0008973811538508514,-1.157891099230768,13.0,-15.085320935641185,-15.045440399670133,-15.010547011571271,-14.969641412267585,-14.915463080221015,-14.75791569560185,-14.176684576095079,-13.586346546278966,-12.978342253369853,-12.357324450119656,-11.723540499664704,-11.0762723520586,-10.414977854435516,-9.739223797827385,-9.02760023239681,-8.235559928526005,-7.4289252567732795
mp-35787,Ca(DyS2)2,Tetragonal,I-42d,False,0.025616325714288735,-2.3696688383928524,7.0,-16.221798295995026,-16.103718558635315,-15.988015830645049,-15.868736287297514,-15.741474524847877,-15.561527696754496,-15.16871471878177,-14.770189125704757,-14.358271809114171,-13.93821431942628,-13.510661370506897,-13.075163177540091,-12.631364510071691,-12.174475315306738,-11.674229451381464,-11.100242461447099,-10.518828439733692
mp-1194059,Ca(ErS2)2,Orthorhombic,Pnma,True,0.0,-2.4037840093452383,7.0,-16.51622571580849,-16.41187612747535,-16.309640295156207,-16.203568539846493,-16.08927204068989,-15.922070752616502,-15.541833340056312,-15.155814907976644,-14.756500103992462,-14.349320817432817,-13.93511246538164,-13.513630476268577,-13.084714468579719,-12.648252836947158,-12.1819723917795,-11.621201481327216,-11.05422652712512
mp-14423,Ca(GaS2)2,Orthorhombic,Fddd,True,0.0,-1.404014133392857,7.0,-9.68683840325989,-9.596427615044924,-9.508926561493482,-9.418460186599397,-9.320701855338342,-9.171037854194545,-8.809401106291055,-8.443129631037856,-8.064795136214702,-7.6799165713154345,-7.289426777894111,-6.893176535989447,-6.491107034279775,-6.083212383311585,-5.648469328716574,-5.142677794637834,-4.632008847891841
mp-36358,Ca(GdS2)2,Tetragonal,I-42d,False,0.020269839642860887,-2.342951598035715,7.0,-16.098647446603145,-15.994862368639804,-15.89343979001843,-15.788216527044618,-15.674708407252991,-15.50819392835232,-15.128527244745122,-14.742986262870456,-14.344082577537145,-13.93725844237958,-13.52335134734275,-13.102139522328043,-12.668288724599586,-12.21466656835729,-11.732906688904817,-11.178877414800459,-10.61881407155374
mp-1194276,Ca(HoS2)2,Orthorhombic,Pnma,True,0.0,-2.4059290855357136,7.0,-16.520629734567304,-16.41411283529537,-16.309960508226467,-16.202272823021637,-16.08672521751762,-15.918592043701057,-15.53762174006008,-15.15092016556521,-14.750806138946107,-14.34253121061903,-13.926738021588736,-13.502989224205683,-13.070923369432506,-12.630225711516786,-12.145622076258132,-11.58094057871013,-11.009487073480098
mp-1227503,Ca(InS2)2,Orthorhombic,Imma,False,0.03677300839285813,-1.189811306785714,7.0,-8.164567310458239,-8.085867129299714,-8.00429961901242,-7.918846437068962,-7.82531361155326,-7.679201436308217,-7.32053818606593,-6.956717847485178,-6.580355658428109,-6.197016171332034,-5.807665393528074,-5.412178979387736,-5.010529210505354,-4.602726780315944,-4.167769163061877,-3.6614770114969097,-3.1500296838817725
mp-35421,Ca(LaS2)2,Tetragonal,I-42d,False,0.01335750107143241,-2.4737651023214267,7.0,-17.14193356219853,-17.072310463133906,-17.004600052559823,-16.932827777138936,-16.85305877258846,-16.720426436342535,-16.374660551139684,-16.022918797477104,-15.652936898266436,-15.262765284578974,-14.86574701717383,-14.461817863393438,-14.0510019263588,-13.633355502448401,-13.187917523125932,-12.670539734061142,-12.1474367321529
mp-505362,Ca(LuS2)2,Orthorhombic,Pnma,True,0.0,-2.4001439038690484,7.0,-16.6648340173643,-16.605192365533473,-16.548431428311247,-16.488512393667193,-16.42096145344126,-16.301019793843036,-15.968475237720906,-15.630512412765926,-15.279549635038942,-14.920950389453813,-14.555485834401397,-14.182845066757231,-13.802809664897525,-13.415205837622388,-12.998846574539257,-12.509368043766987,-11.998986811422446
mp-1045467,Ca(MnS2)2,Orthorhombic,Imma,False,0.09161271500000012,-1.272324373602217,7.0,-8.842988475720714,-8.800634756104966,-8.759775007044329,-8.714156911818542,-8.659229966408088,-8.550239502744681,-8.22607579483493,-7.891228750983457,-7.542135964859016,-7.184432466175173,-6.817832254178899,-6.438591767819608,-6.0372082407567245,-5.62434894516808,-5.182269892892553,-4.66689952545936,-4.144527062765764
mp-1395180,Ca(MnS2)4,Trigonal,R-3m,False,0.041544085384616736,-1.0615894254177713,13.0,-13.734639752774012,-13.665076875099782,-13.597047758760967,-13.519664979178144,-13.425817260810055,-13.225598987045093,-12.597020603826532,-11.94937314001309,-11.282210421035344,-10.600790475076625,-9.90329609565104,-9.182189519903448,-8.418409654200016,-7.6332385821052045,-6.812193855465814,-5.911341811539753,-4.997122533483129