,pretty_formula,crystal_system,spacegroup,experimentally_observed,"energy_above_hull, eV/atom",Ef,total_atoms,Gf_400,Gf_500,Gf_600,Gf_700,Gf_800,Gf_900,Gf_1000,Gf_1100,Gf_1200,Gf_1300,Gf_1400,Gf_1500,Gf_1600,Gf_1700,Gf_1800,Gf_1900,Gf_2000
mp-1106085,Nb2PdS5,Monoclinic,C2/m,True,0.0,-1.1763673915625006,8.0,-9.41148048430227,-9.380912441803337,-9.353369245493788,-9.322468647607447,-9.28471855382531,-9.183522404817582,-8.818883790631892,-8.450222118314747,-8.076500883007554,-7.69703828625951,-7.311379322834778,-6.919225900648389,-6.520389766481177,-6.114739743834392,-5.70219605778845,-5.275247763559303,-4.838918696168371
mp-1080466,Nb2PdS6,Monoclinic,C2/m,True,0.0,-1.1232476572222225,9.0,-10.133697559282696,-10.102738211098007,-10.074273124406353,-10.041515466304336,-10.000733941145842,-9.884269494100568,-9.452275150861244,-9.016142880904914,-8.574680835056158,-8.127100678454962,-7.672873752991766,-7.211650518928064,-6.743208632756216,-6.267393201124499,-5.7841102667493445,-5.285840083598458,-4.777602437776384
mp-17803,Nb2Tl4S11,Triclinic,P-1,True,0.0,-0.8666288315196098,17.0,-14.669563495489168,-14.584001116553823,-14.491261571268673,-14.365307457463377,-14.22320517114993,-13.941101233215107,-13.079444532809664,-12.209303481229384,-11.328648719102643,-10.436175942003949,-9.53105902402893,-8.612782996462396,-7.681067852824732,-6.7357726235400825,-5.566753114675542,-4.2065590883348705,-2.8345765504706932
mp-28868,Nb3(BiS3)2,Hexagonal,P6_3/mcm,True,0.0,-1.1828108059090916,11.0,-13.024620972807613,-12.991717799327617,-12.940293320891428,-12.865819368699597,-12.782501542166463,-12.622128060579628,-12.144534144754758,-11.660937077660323,-11.170054044760281,-10.671065013719552,-10.163425647358816,-9.646790262977412,-9.120961615238793,-8.585829619402695,-8.041348649317069,-7.48752449787407,-6.823346155515807
mp-1220938,Nb3(CuS3)2,Trigonal,P3m1,False,0.05145435688311473,-1.0975162563636358,11.0,-12.005603209871825,-11.953439949033605,-11.90800075816794,-11.859519348560358,-11.802687405545306,-11.668944907751197,-11.217901134137469,-10.760603393065132,-10.295621696862417,-9.82196189286466,-9.330439958967435,-8.817453747734625,-8.294492804522529,-7.761494720395424,-7.2184594721447075,-6.665428091300672,-6.1024581281852255
mp-7116,Nb3CoS6,Hexagonal,P6_322,True,0.0,-1.2892068865,10.0,-12.805311698823214,-12.747131882033251,-12.693256002184047,-12.635287272524806,-12.568050863802682,-12.423958562474958,-11.962797723904451,-11.495676052512607,-11.021148930337038,-10.53816032116062,-10.045838960276683,-9.54407457905775,-9.033262140297875,-8.513393526615056,-7.981417653862598,-7.433892620352566,-6.877302267122936
mp-1189260,Nb3CrS6,Hexagonal,P6_322,True,0.0,-1.381499384499999,10.0,-13.74344567907847,-13.68972780038673,-13.640725321557445,-13.588073585186358,-13.527185418132962,-13.38989531504753,-12.93603105208367,-12.476759410203226,-12.010724904469658,-11.537008307496254,-11.05497051501577,-10.564166491338497,-10.06428746292642,-9.555106625555021,-9.036462463404295,-8.508243126089592,-7.970349047901756
mp-22613,Nb3FeS6,Hexagonal,P6_322,True,0.0,-1.3048062779999967,10.0,-12.94998977687137,-12.888930733962592,-12.831914447500193,-12.770405249041925,-12.699608679340649,-12.551093906830108,-12.084296936922357,-11.610974279552654,-11.127388732419067,-10.6361946806135,-10.136826606436571,-9.628917206488572,-9.112235439521475,-8.586634306461821,-8.052032096640666,-7.499738424149708,-6.938005280516663
mp-867739,Nb3GeS6,Hexagonal,P6_3/mcm,False,0.0,-1.2825669164999993,10.0,-12.823606081740461,-12.787468832681936,-12.756293653952778,-12.72178532899445,-12.679405396901524,-12.561028773115051,-12.126519508857314,-11.687071332284022,-11.241359851374632,-10.760207560253543,-10.268174090208259,-9.768205606253852,-9.26008972289189,-8.743697060367987,-8.218961454471186,-7.685864333564844,-7.1444035564099195
mp-675367,Nb3IrS8,Monoclinic,C2/c,False,0.02637447062481879,-1.1682016595833329,12.0,-14.138492966154582,-14.11968694543797,-14.104548628788045,-14.083971556510761,-14.052933682893805,-13.92117664093294,-13.368867498862798,-12.81116687474135,-12.246459380094525,-11.673669718396535,-11.092074701895193,-10.501189621856248,-9.900710074302083,-9.290431262147955,-8.670238964274805,-8.040078350799881,-7.39991949047031
mp-1173526,Nb3NiS6,Hexagonal,P6_322,False,0.0,-1.2806918184999987,10.0,-12.718689222174714,-12.659793215563454,-12.604606234766873,-12.544460984664997,-12.47555590646153,-12.330021913939241,-11.867796644888276,-11.40012564899099,-10.925718736434451,-10.443726120677663,-9.953573992576981,-9.454886757288424,-8.947428191411305,-8.431044040858428,-7.898066959888045,-7.352885279490842,-6.798495251960478
mp-21852,Nb3PbS6,Hexagonal,P6_3/mcm,True,0.0,-1.3538081669999997,10.0,-13.559555387469672,-13.528045666571893,-13.500747640297412,-13.461138906514801,-13.412901971308331,-13.288142874127955,-12.846879057914883,-12.40044727823841,-11.947642332589314,-11.487684911702864,-11.020054064392614,-10.544411507313775,-10.060549000690058,-9.568333019044939,-9.067694288875863,-8.558608019962982,-8.04106585248407
mp-557640,Nb3SnS6,Hexagonal,P6_322,True,0.0,-1.3287038714999966,10.0,-13.29481455575175,-13.259526683755027,-13.21449289639041,-13.164758910923277,-13.106716981067049,-12.972358102482499,-12.521639605139914,-12.065851605234577,-11.603751588758088,-11.134528117099169,-10.657648838335515,-10.172771323400207,-9.679688368947488,-9.178274740945094,-8.66846634804314,-8.15024980075765,-7.623622957849584
mp-15958,Nb3VS6,Hexagonal,P6_322,True,0.0,-1.4608477899999996,10.0,-14.514980673669523,-14.455325200808854,-14.400216189633724,-14.341379152196252,-14.274303611215412,-14.130883137881863,-13.671002512028544,-13.20588344543556,-12.734220201831974,-12.25514744821879,-11.768075828994352,-11.272612129995636,-10.768503544933413,-10.255581309693028,-9.733744021425395,-9.20293579699467,-8.663115110801556
mp-1220620,Nb3WS8,Trigonal,R3m,False,0.01815544708333139,-1.2811643083333333,12.0,-15.487528436712392,-15.46732679336284,-15.450931735771434,-15.429232658521993,-15.397216843776999,-15.264643543851282,-14.71169226414587,-14.153535023454605,-13.588568870469809,-13.015724727248902,-12.434286661053427,-11.843776181732322,-11.243891994599586,-10.634434484723133,-10.015291503844953,-9.386410294943403,-8.747764036057173
mp-1220596,Nb4AgS8,Trigonal,R3m,False,0.006987346153821683,-1.2388743808974338,13.0,-16.134400812408078,-16.09325385367429,-16.057689990369298,-16.01714309137899,-15.96583058510572,-15.81307160489902,-15.2387794831612,-14.657961163141806,-14.068906025020866,-13.464189296546403,-12.846048287478574,-12.217266010212288,-11.577583257417277,-10.926844583508391,-10.26497807046664,-9.591968799396142,-8.907823729133153
mp-1094100,Nb4CoS8,Hexagonal,P6_3/mmc,True,0.0,-1.3128629096153825,13.0,-16.962287027067944,-16.887376063327917,-16.817692699343777,-16.7425640516565,-16.655565998168356,-16.466554543245095,-15.855366323429564,-15.236905675348531,-14.609329316073758,-13.971317049194077,-13.321818626818205,-12.660605194211422,-11.987995872281026,-11.303931603481459,-10.605331711955731,-9.888739293007031,-9.160628631999089
mp-5306,Nb4CrS8,Hexagonal,P6_3/mmc,True,0.0,-1.3970741403846154,13.0,-18.06552159608415,-17.993392462632574,-17.926902391858587,-17.855410629649686,-17.773080710020494,-17.589191345529755,-16.983619593511097,-16.37132886713169,-15.750565016489162,-15.120144654002715,-14.47924969222052,-13.827316509345627,-13.163960489953261,-12.488903889655344,-11.80195560092156,-11.10298877035843,-10.391894276582509
mp-1193686,Nb4FeS8,Hexagonal,P6_3/mmc,True,0.0,-1.3231975561538467,13.0,-17.107494796118882,-17.03524790651072,-16.967967436164063,-16.89484161992844,-16.809826705711817,-16.621936079856418,-16.010655028954325,-15.39153669514611,-14.760445211164,-14.119770801905847,-13.468768966487662,-12.806953815402494,-12.134018465515553,-11.449764977589837,-10.75408204924608,-10.038264291567138,-9.310554140406449
mp-4139,Nb4GaS8,Cubic,F-43m,True,0.03346201378204405,-1.3010113313461535,13.0,-16.83212522174452,-16.748321767188173,-16.67000191072944,-16.586741512237253,-16.492853351723028,-16.297734294826277,-15.681364005503454,-15.0588085035445,-14.428408990656088,-13.789075358005444,-13.140082796888716,-12.480959927826405,-11.811414377711195,-11.131260644472484,-10.440399862897404,-9.738794312618332,-9.026430223860867
mp-1192540,Nb4NiS8,Hexagonal,P6_3/mmc,True,0.0,-1.305771939615385,13.0,-16.869388569632363,-16.793950403374257,-16.723144925745967,-16.64602874491927,-16.557551009253,-16.367286850438393,-15.75522318744562,-15.136402202162369,-14.509135039809845,-13.872307753653015,-13.225167551363613,-12.56722025199043,-11.898153790246003,-11.217762971879601,-10.51835085943916,-9.80429078090652,-9.078569432901045
mp-1194374,Nb4VS8,Hexagonal,P6_3/mmc,True,0.0,-1.4482986130769224,13.0,-18.71392996324238,-18.636973056263667,-18.565486273785623,-18.488919031152147,-18.40151155823731,-18.21260164414025,-17.60212334987393,-16.985095019423785,-16.359812251553016,-15.725145553068591,-15.080326585184253,-14.424843547629713,-13.758367792228995,-13.080679614703882,-12.391648020495005,-11.69120212345765,-10.979290842318239
mp-1220583,Nb5V3S20,Monoclinic,Cm,False,0.013860526194201306,-1.1812709817857134,28.0,-33.01643418478888,-32.87782202763835,-32.74384875732039,-32.594749445452145,-32.41959781829894,-31.993672762793707,-30.517925850166293,-29.03056131124103,-27.527703153900156,-26.00674665583095,-24.465903154229565,-22.90395287450037,-21.320099862438212,-19.713804417823518,-18.084738875310357,-16.432707585044177,-14.757583703755543
mp-1220429,Nb6BiS8,Trigonal,P-3,False,0.08559542933333475,-1.2082943286666656,15.0,-18.15356678336649,-18.11333808616496,-18.070127557938843,-18.013047019650216,-17.944534258512718,-17.77323234676033,-17.178682917530573,-16.575689207509495,-15.962437194350086,-15.337754286648371,-14.70085750297888,-14.051246155122907,-13.388616693075537,-12.712779711142588,-12.023635963007635,-11.321156036569885,-10.554807622183603
mp-1220444,Nb6CdS8,Trigonal,P-3,False,0.033029042000000786,-1.2608607159999992,15.0,-18.847076142342463,-18.782900801292,-18.72724075312224,-18.65702146858535,-18.575207241605874,-18.39038725003006,-17.782088616967954,-17.105364358864133,-16.37956954701308,-15.642899367385537,-14.894525235612573,-14.133912261267888,-13.360725801430569,-12.574745357490436,-11.775850954520397,-10.963987269656329,-10.13912207098479
mp-1220614,Nb6PbS8,Trigonal,P-3,False,0.031053079333334566,-1.2628366786666665,15.0,-18.940387260232928,-18.89189767821564,-18.852513118052457,-18.800501228036115,-18.736753441024668,-18.569958432195556,-17.979683745449616,-17.380765783249977,-16.771424725457226,-16.15051492786125,-15.5172731012167,-14.871210994471276,-14.212029203342205,-13.539536249274231,-12.853630813089858,-12.15427830053564,-11.441457880433976
mp-1220453,Nb6SnS8,Trigonal,P-3,False,0.052559433666669264,-1.2413303243333322,15.0,-18.565173721948973,-18.503175902191227,-18.436325494296398,-18.36445826595402,-18.281175397651307,-18.095050520776507,-17.485591066259538,-16.86758679718953,-16.239220581927874,-15.599314646917907,-14.94709430217845,-14.282067150935042,-13.603934825335454,-12.91251413826869,-12.207708952709936,-11.489496075141588,-10.757860892969262
mp-1220483,Nb6TlS8,Hexagonal,P-6,False,0.0,-1.2986891535555551,15.0,-19.48245798582452,-19.435155902806795,-19.394190535688868,-19.34286036657186,-19.2799362914428,-19.114007488147934,-18.524597970505717,-17.9265140844938,-17.317949062778908,-16.697736532540254,-16.06510905881038,-15.419581499828567,-14.760862742756316,-14.088773746204765,-13.35069725587697,-12.55473880292758,-11.745715613908196
mp-1220442,Nb6ZnS8,Trigonal,P-3,False,0.06261272628205106,-1.2352105619999993,15.0,-18.386413277556088,-18.303549202820175,-18.230024383238884,-18.151465123890972,-18.051039895516038,-17.84739125213278,-17.22007015475352,-16.583900568674977,-15.918369191869362,-15.159242853568031,-14.388413599551804,-13.605345502963857,-12.80970288445274,-12.001267318269349,-11.17991675662551,-10.34559794951819,-9.498276592172854
mp-3926,NbAg7S6,Monoclinic,Pc,True,0.04511950083333005,-0.43838819761904596,14.0,-6.086625381595579,-6.038661505974308,-6.002718063560483,-5.964668407129041,-5.916808636999773,-5.789128821088545,-5.340289436931297,-4.880720267453285,-4.408589550725283,-3.8786300605860102,-3.3110408998461196,-2.728299189551052,-2.1305018481778646,-1.5178412736345877,-0.8905562865104137,-0.24891233077999786,0.4068000741643125
mp-1247748,NbCr3S8,Trigonal,R-3m,False,0.055458349027766474,-0.9658416941666665,12.0,-11.633885721498809,-11.596602696994326,-11.562893061378013,-11.523444105279697,-11.47305344407429,-11.321295845441696,-10.748157002273228,-10.168599574395014,-9.58081436082325,-8.983517742494985,-8.375782354842979,-7.756913093734724,-7.126385831919572,-6.483785376914511,-5.828778820757968,-5.161097828877374,-4.480495856038377
mp-1209946,NbCrS5,Monoclinic,P2_1/m,False,0.061470667619045294,-0.9671848103571412,7.0,-6.772803910561933,-6.742856724470989,-6.714185858523178,-6.681765093319059,-6.6427882374265685,-6.541013863177482,-6.176619491300697,-5.809096325639002,-5.4374201782370655,-5.060880532868669,-4.678975293014603,-4.2913422522389855,-3.8977220499119736,-3.4979186115772087,-3.091787057743314,-2.679219140298631,-2.2601222581319576
mp-5621,NbCu3S4,Cubic,P-43m,True,0.0,-0.8472671887500001,8.0,-6.792767955528564,-6.773244858379117,-6.759513876942819,-6.744082746352383,-6.722883116912325,-6.649895202884599,-6.3646593098684745,-6.07440331254791,-5.778066868162064,-5.47487023557472,-5.151516517027898,-4.802914647435649,-4.446496210859207,-4.082298450761472,-3.7103965385875934,-3.3308869296675123,-2.94388129651035
mp-1018022,NbInS2,Hexagonal,P-6m2,True,0.0,-1.1136915929166662,4.0,-4.391755784754141,-4.357730138789494,-4.323528570580887,-4.287983586861389,-4.249222177731176,-4.1843655587836786,-4.01329322623979,-3.8397092868978824,-3.6631727024033918,-3.4834086459774025,-3.300245841358427,-3.1135811045550827,-2.9233651345783453,-2.729573541292531,-2.5322065989210207,-2.3312819604280577,-2.1268186687842654
mp-1220398,NbMoS3,Monoclinic,P2_1/m,False,0.06579250216667365,-1.1821399234999987,5.0,-5.920190900697657,-5.904709063631408,-5.891619646919246,-5.8767543136712455,-5.857841242358353,-5.800824109284298,-5.58564271328922,-5.367906355617366,-5.146964759209611,-4.922381630059581,-4.6938633267969925,-4.461210651263988,-4.224293572809092,-3.9830214907917743,-3.7373359305584977,-3.487201177312338,-3.232591804316252
mp-1220404,NbMoS4,Monoclinic,Pm,False,0.015993975000001548,-1.2589432233333302,6.0,-7.58493952033093,-7.568531778742136,-7.5539858728110865,-7.536728880510623,-7.5142497789845875,-7.4414297490362,-7.158358025150701,-6.87261647100288,-6.583399465216772,-6.290164177376807,-5.9925433132389685,-5.6902862269918595,-5.383228797695544,-5.071256707856515,-4.754297300457239,-4.432306059452554,-4.105253509188543
mp-19746,NbPbS2,Hexagonal,P6_3/mmc,True,0.0,-1.1291902012499992,4.0,-4.461539626920224,-4.4352316601576005,-4.411288062387995,-4.377738624896482,-4.34076443945707,-4.277583109702784,-4.10811351621478,-3.936099150151694,-3.7611321389360235,-3.58296149369112,-3.40142422959976,-3.216419235531629,-3.0278899554839676,-2.8358047443073646,-2.6401535119198627,-2.440941474119307,-2.23817938243206
mp-9586,NbSnS2,Hexagonal,P6_3/mmc,True,0.0,-1.107942841249999,4.0,-4.399855736878646,-4.379020475686158,-4.346591973495499,-4.312168140988538,-4.2746398175684535,-4.211109563079075,-4.041436145130632,-3.8693164155077655,-3.694305190133777,-3.5161193507854844,-3.334584511909803,-3.1495954166542823,-2.9610965454466953,-2.769064544581896,-2.573494506130599,-2.37440304662651,-2.1718071361791926
mp-1091384,NbTl3S4,Cubic,I-43m,True,0.0,-0.897040353750004,8.0,-7.062549352758183,-7.008576982435436,-6.950484306205897,-6.871196222491907,-6.7849145790380065,-6.6459802679317095,-6.294219649599464,-5.93712488851121,-5.573878166650873,-5.203979579126226,-4.8271383949409525,-4.443194885486285,-4.052087760283364,-3.6538138420042934,-3.0908258737374865,-2.3875722826219814,-1.67861050993924
mp-1220455,NbW3S8,Orthorhombic,Pmm2,False,0.013110915416666202,-1.1890497441666668,12.0,-14.394916357750294,-14.378225644194988,-14.365565385393008,-14.347812538761774,-14.319923293547777,-14.191621663427707,-13.643051915164467,-13.089357047496968,-12.528917526228998,-11.960639399085174,-11.383806733327052,-10.797932747359301,-10.202720292218041,-9.597978044415456,-8.98360629285996,-8.359566790557338,-7.725855517018033
mp-1189069,Nd(ErS2)3,Monoclinic,P2_1/m,True,0.0,-2.3934241824374993,10.0,-23.54530215207739,-23.40721540907333,-23.271191840197154,-23.129195336523644,-22.976756877993083,-22.745715104977876,-22.195843899243908,-21.63821676300502,-21.069409495980334,-20.489242882183856,-19.893318683804274,-19.286298358389175,-18.667978848314927,-18.038226628105015,-17.395247803849564,-16.70844392102857,-16.011129934324657
mp-1189307,Nd(HoS2)3,Monoclinic,P2_1/m,True,0.0,-2.3979727239374995,10.0,-23.571136393285563,-23.42886520839079,-23.28903342190747,-23.14367954790876,-22.988430954374564,-22.755057877262082,-22.203153859424404,-21.643568534080202,-21.07262895762062,-20.489885405690483,-19.890650476359713,-19.279296463057108,-18.65531870687387,-18.018278971756704,-17.34688188688224,-16.653278647935153,-15.948313359206821
mp-1189434,Nd(LuS2)3,Monoclinic,P2_1/m,True,0.0,-2.3829477884374968,10.0,-23.711815317612395,-23.643326365787143,-23.578051025981676,-23.507819489731972,-23.428035256022763,-23.270418812145625,-22.79462277749407,-22.311614938367555,-21.817871597153996,-21.313110931244623,-20.79283831478851,-20.26161570800209,-19.719152993096905,-19.165223365848455,-18.59966220114513,-18.022332774269493,-17.41244525677724
mp-1103989,Nd(Mo3S4)2,Trigonal,R-3,True,0.0,-1.0644918306666662,15.0,-16.081894370579963,-16.063086224617596,-16.053103264265353,-16.038245474448612,-16.01102889288628,-15.879778407638643,-15.323762034182426,-14.757524938000913,-14.177077629057814,-13.581865228546961,-12.967268925639349,-12.337806428758238,-11.693205280814734,-11.033292659003159,-10.357974499159745,-9.66720376986467,-8.96097000424567
mp-1209868,Nd(TmS2)3,Monoclinic,P2_1/m,True,0.0,-2.3963517779374994,10.0,-23.561633513904138,-23.42164217673436,-23.284659238338776,-23.142539764586175,-22.990606412879686,-22.76041176876451,-22.211599123759356,-21.65522643362007,-21.087913028148158,-20.509541877189633,-19.915808021681173,-19.311478635084747,-18.696475031440727,-18.070791166228165,-17.43448939262224,-16.76383346266356,-16.07705826677604
mp-1188689,Nd(YS2)3,Monoclinic,P2_1/m,True,0.0,-2.3995300159375006,10.0,-23.886135417752612,-23.81948719935393,-23.75549913907028,-23.685898821814853,-23.606067981531176,-23.447789291342822,-22.9708179772661,-22.486258634430847,-21.990739920513374,-21.484157242526084,-20.962202532114055,-20.42963674415607,-19.886374974109295,-19.33240184957797,-18.763373857540483,-18.159652796365854,-17.545241292395517
mp-37233,Nd2CdS4,Tetragonal,I-42d,False,0.09607281749999697,-1.836576639999999,7.0,-12.611197161077229,-12.523032837592728,-12.435744772065526,-12.333603526979381,-12.223414767667528,-12.059508657900821,-11.681564195321673,-11.237083155364312,-10.742231586897782,-10.237319339555839,-9.714435393152389,-9.183553344744315,-8.644762592576214,-8.098183691719633,-7.543975955044708,-6.9822933513646745,-6.413314306152792
mp-37693,Nd2EuS4,Tetragonal,I-42d,False,0.0,-2.406561131607142,7.0,-16.527780573135693,-16.420980904269666,-16.315824451955542,-16.20629935135676,-16.08903144710905,-15.918312555053525,-15.533791616347148,-15.1424863933651,-14.737473335556839,-14.321418099158198,-13.886486359842515,-13.442715973359755,-12.990251268772768,-12.529264622679765,-11.955149840359017,-11.38030217165192,-10.798155988551905