,pretty_formula,crystal_system,spacegroup,experimentally_observed,"energy_above_hull, eV/atom",Ef,total_atoms,Gf_400,Gf_500,Gf_600,Gf_700,Gf_800,Gf_900,Gf_1000,Gf_1100,Gf_1200,Gf_1300,Gf_1400,Gf_1500,Gf_1600,Gf_1700,Gf_1800,Gf_1900,Gf_2000
mp-11695,Rb2Pd3S4,Orthorhombic,Fmmm,True,0.0,-0.9506197927777735,9.0,-8.306342046769405,-8.203345073263312,-8.105093488368466,-8.003430298016507,-7.894000275380325,-7.730671027805068,-7.30961361487475,-6.773292193453063,-6.230869891822211,-5.681625743106855,-5.125094311459943,-4.560980987961244,-3.989103849893926,-3.4093297689474333,-2.8215803342962253,-2.2034008359239543,-1.5699255855090968
mp-4030,Rb2Pt3S4,Orthorhombic,Fmmm,True,0.0,-0.9374983205555528,9.0,-8.205340287845942,-8.106908460519353,-8.013411688591598,-7.916652557203515,-7.812260293069996,-7.654077629203393,-7.238263188021326,-6.707271798512675,-6.170257261084858,-5.626486171696122,-5.075493094499436,-4.516980311282953,-3.9507721179130435,-3.3767758068699596,-2.794965825285338,-2.205345876367687,-1.6079608796620022
mp-7929,Rb2PtS2,Orthorhombic,Immm,True,0.0,-1.1004859879999978,5.0,-5.242012773001859,-5.148973759127966,-5.0583883150096245,-4.965746081680933,-4.868673667420586,-4.744000378422962,-4.468083073174786,-4.079730513976425,-3.6885810696722565,-3.2942165837902424,-2.8963656982165666,-2.4948546073414315,-2.089576600200365,-1.6804706144230277,-1.267517041500886,-0.8507091866919421,-0.4300656715568145
mp-561051,Rb2Sb4S7,Triclinic,P-1,True,0.0,-0.8219474278846147,13.0,-10.570168656644167,-10.48276482443228,-10.400857027484395,-10.313441761001378,-10.214385103434811,-10.023567415267967,-9.329445325788685,-8.514167821051108,-7.690253436026148,-6.856821939064,-6.013350107199528,-5.159541199498104,-4.295261934939248,-3.420468284220142,-2.5352235835063794,-1.731075332930935,-0.6569287656732428
mp-12016,Rb2SiS3,Monoclinic,C2/m,True,0.0,-1.3756421795833305,6.0,-8.052981832269708,-7.9702359803651275,-7.890173853531152,-7.807701205182403,-7.7201017992171455,-7.593082333358316,-7.2631034987942815,-6.8209176002010174,-6.3759838242038,-5.9277619314634,-5.475889291673196,-5.02013132369505,-4.560336861970708,-4.091783100640573,-3.592897149490261,-3.0899619008800556,-2.582999182467434
mp-1220891,Rb2Sn4S9,Orthorhombic,P2_12_12_1,False,0.0,-0.9064541631666662,15.0,-13.466580598248889,-13.358658900718135,-13.197637737297276,-13.025109625429696,-12.838346782551357,-12.535805205184992,-11.714374300733539,-10.776421175914667,-9.830397652813145,-8.875115075351726,-7.909828291819409,-6.934067188698204,-5.9475681185587455,-4.950206452615177,-3.941950830750994,-2.92284542743327,-1.892969427030863
mp-17048,Rb2WS4,Orthorhombic,Pnma,True,0.0,-1.2816011639285705,7.0,-8.85174503852348,-8.781774277812115,-8.713521356651043,-8.64163254359232,-8.563229097066555,-8.432997712948044,-8.047575465264124,-7.549702767579303,-7.048697972229483,-6.543917412757846,-6.034934133858833,-5.521462106740763,-5.003321257709587,-4.480395835675271,-3.9526316488180946,-3.420000254177456,-2.882504920466486
mp-1189283,Rb2Zn3S4,Orthorhombic,Ibam,True,0.0,-1.1812423933333334,9.0,-10.259733652402197,-10.126666446575147,-9.998245132028153,-9.863582756668297,-9.689709283076137,-9.46094161123299,-8.973743074133246,-8.37082035338537,-7.705360000601619,-6.787558808143844,-5.865035498324293,-4.937433276390738,-4.0045266895439475,-3.0661763908901776,-2.122319516061861,-1.1729224567683367,-0.21799903963857759
mp-558772,Rb2ZrS4,Orthorhombic,Pbca,True,0.0,-1.5586469919642856,7.0,-10.691405954566111,-10.596143481304068,-10.502348031403276,-10.404660691263118,-10.300181990703546,-10.143573751266054,-9.731444026923045,-9.2064979926009,-8.675715813352522,-8.13984782178831,-7.5997791836577875,-7.055228015891412,-6.50600284405926,-5.9519754799049025,-5.393073075859023,-4.829242314628214,-4.26046469988443
mp-562230,Rb3(Cu4S3)2,Monoclinic,C2/m,True,0.0,-0.6580245180882358,17.0,-10.625022843856396,-10.428114341978251,-10.246449775475961,-10.062456270344178,-9.866753624678129,-9.588473797515592,-8.920818955718886,-8.076773870639762,-7.2195245013498806,-6.347393946647028,-5.425200999526176,-4.439560815125571,-3.4370799496437208,-2.4179454637685573,-1.3824235900583233,-0.33080104454746007,0.7365873146582089
mp-541448,Rb3(FeS2)2,Orthorhombic,Pnma,True,0.0,-1.0362419488888877,9.0,-8.993320135011764,-8.861661445313093,-8.733039070276346,-8.59902654389453,-8.45487065001576,-8.253872068483503,-7.769664676936399,-7.1133917015235095,-6.4444033462383,-5.768936202375084,-5.086487522587625,-4.396737823622889,-3.699486527014436,-2.994618123770792,-2.2820863324129377,-1.5445605554808814,-0.7986001966363041
mp-29977,Rb3BS3,Monoclinic,P2_1/c,True,0.0,-1.2420956302380952,7.0,-8.341727175299253,-8.215999474114469,-8.094813885683067,-7.9715574154592135,-7.84273257284517,-7.6736163009039124,-7.2787469018329585,-6.716335587766549,-6.1508315603954,-5.581594780769565,-5.00820192109035,-4.430376798656141,-3.8479440037102894,-3.2607955583917505,-2.6688881534014186,-2.072195418639744,-1.4707304689099416
mp-1219776,Rb3Er7S12,Orthorhombic,Pmn2_1,False,0.0,-2.2423160457954556,22.0,-48.21132138404961,-47.827451211281854,-47.44956584218933,-47.05991743272131,-46.64888432685865,-46.07990200862397,-44.80747638630147,-43.35666419507719,-41.88990161963247,-40.40514024166707,-38.90094210973264,-37.3762862735183,-35.8304279288307,-34.26280799340497,-32.66901433604385,-30.977442229115134,-29.265632279817993
mp-1193685,Rb3FeS3,Orthorhombic,Cmce,True,0.0,-1.109011006071427,7.0,-7.418030856017634,-7.2896756748441485,-7.163615625027969,-7.0335362040168405,-6.895969977698494,-6.716043606708573,-6.307953371168635,-5.730503321477931,-5.145740213351118,-4.55656030881768,-3.9625630815506536,-3.3634920410285574,-2.7591842146611345,-2.1495419888926826,-1.5345262001462192,-0.9054604290917556,-0.2706274697572475
mp-22303,Rb3InS3,Monoclinic,C2/m,True,0.0,-1.2565112645238088,7.0,-8.412460118660853,-8.268479115724098,-8.124421891084594,-7.976789923948899,-7.822538643862308,-7.627235194437099,-7.205617908963712,-6.616031699115169,-6.023022154621787,-5.426028005254137,-4.824684999753925,-4.2187635947935345,-3.6081308742681704,-2.992709953232799,-2.3724844695821687,-1.7474560368411325,-1.1176553891319614
mp-541745,Rb3Nb2S11,Monoclinic,P2_1/c,True,0.0,-1.1791144335937496,16.0,-18.665549356709448,-18.52349490880579,-18.382188811103372,-18.230853405402044,-18.063612447303857,-17.756994536551037,-16.806604096333622,-15.686362077864377,-14.559437737063297,-13.42432600426094,-12.280002343411724,-11.125778846243549,-9.961208010826525,-8.785989654448688,-7.5999616361945606,-6.403027702605257,-5.195154682142039
mp-3719,Rb3NbS4,Orthorhombic,Pnma,True,0.0,-1.4849080793749998,8.0,-11.586093911111885,-11.464870560474413,-11.346124820704777,-11.223378055997202,-11.093199321434154,-10.909985476351942,-10.448544484535047,-9.81913785283824,-9.186110223731534,-8.548753369785512,-7.90659000250788,-7.259308038001482,-6.606706267665469,-5.948654033216364,-5.285089697268923,-4.615976015614301,-3.9413096169724327
mp-1193319,Rb3SbS3,Cubic,P2_13,True,0.0,-1.1806025796428565,7.0,-7.940943982499137,-7.818340944602563,-7.698627949189384,-7.575720581285712,-7.446366984330197,-7.2759404894254,-6.8571252245448715,-6.269190597397289,-5.677617058053949,-5.081858882743427,-4.481567366665422,-3.8765285129503204,-3.26661873336813,-2.651770470848609,-2.0319787640223783,-1.4301156207760997,-0.7584141901151931
mp-17154,Rb3SbS4,Orthorhombic,Pnma,True,0.0,-1.1381014471874993,8.0,-8.799095284826151,-8.674508563705468,-8.552281300371828,-8.42592449471413,-8.291947088843905,-8.104659918363208,-7.616896546890693,-6.95989894456557,-6.29899221714231,-5.633524104440287,-4.963072248785471,-4.2873712056546935,-3.6062632965295194,-2.9196572474867146,-2.227533914792911,-1.552756505086542,-0.8075541184561494
mp-541975,Rb3Ta2S11,Monoclinic,P2_1/c,True,0.0,-1.2031392307604047,16.0,-19.072949731472253,-18.936248717483174,-18.800101204755087,-18.65378757519771,-18.49147718735654,-18.189729733889813,-17.24417658518142,-16.12875942105481,-15.006666153179545,-13.876404149052618,-12.736967528378024,-11.587695330077537,-10.428193946608985,-9.258202579620672,-8.07758603539099,-6.886262570488512,-5.684219741985174
mp-17220,Rb3TaS4,Orthorhombic,Pnma,True,0.0,-1.5270300406041661,8.0,-11.938429458455037,-11.820847336640274,-11.705645401223217,-11.58637403645303,-11.459625098883905,-11.27981099431015,-10.821753160113186,-10.19572346745311,-9.566075886674726,-8.932108408931834,-8.29335307360693,-7.649511270399788,-7.000408737903429,-6.345934510014498,-5.686040422944693,-5.020696487498899,-4.349909696702383
mp-505721,Rb3VS4,Orthorhombic,Pnma,True,0.0,-1.4242961512499983,8.0,-11.057418636483536,-10.924973855594237,-10.79479732660506,-10.660431142320896,-10.518452649268465,-10.323250415339828,-9.849618930722524,-9.207800010091193,-8.56211653087465,-7.911838500602283,-7.256467902171131,-6.595670886642836,-5.9292286260974905,-5.256998025085217,-4.578906045484896,-3.8949019694907676,-3.2049710250868912
mp-31060,Rb4(BS)9,Triclinic,P-1,True,0.0,-0.9702904349999993,22.0,-21.356528921361114,-21.312658625529398,-21.299168635264387,-21.28984035976719,-21.27056025308753,-21.135017206513446,-20.433840878134795,-19.502774638365906,-18.559243530259874,-17.601175815829468,-16.62724495990865,-15.636585994981786,-14.6286722854828,-13.603206447856435,-12.56008220155584,-11.499256201547086,-10.420809864481633
mp-1194520,Rb4Al2S5,Orthorhombic,Pna2_1,True,0.0,-1.4980314849999998,11.0,-15.974469248569413,-15.786921755878994,-15.603796420946791,-15.41547931034673,-15.216804100396299,-14.95016791332138,-14.312462507223223,-13.441360054431346,-12.564095126531898,-11.679840954391329,-10.78807859337839,-9.888496044784748,-8.980922492252446,-8.065276352880907,-7.1415581216767805,-6.209801575156639,-5.270081364746176
mp-29090,Rb4Au6S5,Hexagonal,P-62c,True,0.0,-0.8172281581666738,15.0,-11.707342555579231,-11.509327796534723,-11.323695252690435,-11.13522031965734,-10.935829306180935,-10.666395164787469,-10.038730866128065,-9.181722664974483,-8.31388301459769,-7.433778661314594,-6.5030586079459844,-5.537978656919364,-4.559681597038971,-3.5682210655706577,-2.56374396844965,-1.5464147060848674,-0.5164596359809224
mp-1191800,Rb4Fe2S5,Triclinic,P-1,True,0.0,-1.0741826747727268,11.0,-11.358774881720672,-11.181983221587544,-11.008568997235127,-10.828570034578169,-10.636426166331532,-10.374068120981129,-9.753432482248789,-8.905141621976897,-8.043408398531922,-7.174285868660004,-6.297147298954421,-5.411591557680989,-4.517364914039096,-3.6143173807129503,-2.7023872668772313,-1.7642336275892025,-0.8164165783363231
mp-542012,Rb4Hf3S14,Monoclinic,C2/c,True,0.0,-1.4475317609523795,21.0,-30.07191728099252,-29.870687674922234,-29.670376732343982,-29.45634524160556,-29.220620293540073,-28.80576433364986,-27.56571822593018,-26.097663153034453,-24.61923857887301,-23.128497957617416,-21.62413554901817,-20.105291193839175,-18.57141637955403,-17.02217214433687,-15.457391767006413,-13.876997173694605,-12.281014753429368
mp-27670,Rb4In2S5,Triclinic,P-1,True,0.004043099772728986,-1.2293042814393929,11.0,-12.966982125897776,-12.753442488210785,-12.538537580184377,-12.317937191250953,-12.086926881440512,-11.788318345192199,-11.13513227256563,-10.257072757950736,-9.373350327745284,-8.483102974177612,-7.585776513978333,-6.681023709800979,-5.768650943815878,-4.8485496859285675,-3.920703848257169,-2.985128551568664,-2.0418797915391522
mp-541057,Rb4Re6S13,Monoclinic,C2/c,True,0.0,-1.0502469244565205,23.0,-23.8759230365758,-23.69455359552538,-23.52106051161001,-23.336907876344497,-23.132064857775077,-22.758860914341472,-21.610292064689304,-20.231105904616186,-18.838789783270386,-17.431331773356042,-16.00740164589439,-14.566115633278047,-13.106958094380666,-11.62959393698182,-10.13390114352488,-8.619818239852833,-7.087414820471331
mp-30230,Rb4SnS4,Cubic,P-43n,True,0.0,-1.2568321861111111,9.0,-10.85515825785785,-10.684252042474693,-10.502193407753355,-10.314713528770952,-10.118724733242516,-9.868405557673182,-9.316776312825894,-8.541653801053283,-7.7624421207365355,-6.978388175653777,-6.18900061919463,-5.393966186689257,-4.5930925911155,-3.7862695056345395,-2.973459976642147,-2.154654233749916,-1.3298816500448112
mp-14577,Rb4Ta2S11,Orthorhombic,Pca2_1,True,0.006396320588234694,-1.2571556845392147,17.0,-21.102105815932337,-20.934673529127416,-20.768666449398616,-20.59223383571463,-20.398977296814813,-20.06514906950034,-19.064533794593203,-17.83857973517962,-16.60549280161903,-15.363703363269405,-14.112155206648005,-12.850157169848998,-11.577296583284493,-10.29330188713147,-8.998036660685997,-7.6914176142821375,-6.3734370657345
mp-14858,Rb4Tc6S13,Monoclinic,C2/c,True,0.0,-1.1013143151086944,23.0,-24.983220628765647,-24.786970514241908,-24.59919374084039,-24.400962629334302,-24.181947855776308,-23.794255009610975,-22.630724644903893,-21.235961330039135,-19.827352916833746,-18.402787980660683,-16.960849232376397,-15.500615592874297,-14.021484360863255,-12.523083132623654,-11.00524636051641,-9.467875258885414,-7.910989673570612
mp-542067,Rb4Ti3S14,Monoclinic,C2/c,True,0.0,-1.3373095526190422,21.0,-27.628685427950053,-27.395335440087464,-27.162748651136937,-26.91647862552542,-26.648735902290426,-26.20216687780748,-24.930619137323845,-23.431028229456572,-21.91694800895394,-20.383876092292525,-18.838161815141383,-17.278845520933224,-15.705272981227226,-14.116974643950378,-12.513656306965771,-10.895096868991786,-9.247060398488394
mp-676329,Rb5Re3S7,Triclinic,P1,False,0.0,-1.1013578578333323,15.0,-16.041886095085946,-15.840367222252354,-15.645136353083519,-15.443329871945128,-15.228109512778314,-14.919186389481553,-14.127593040514434,-13.054209294779419,-11.972755150761756,-10.881940382191939,-9.780912048583502,-8.669111939823143,-7.546208004066294,-6.41198855236231,-5.266381803803885,-4.109347981984897,-2.9409341419276984
mp-685928,Rb5Tc3S7,Monoclinic,Cm,False,0.0,-1.1332671599999968,15.0,-16.468522541751753,-16.254969109824238,-16.048002173555048,-15.834562231939103,-15.607661772920729,-15.286899975900829,-14.483231647048992,-13.397465101560885,-12.303270589256162,-11.199308135199711,-10.084681268822688,-8.958813124262186,-7.821328119591236,-6.671995910109587,-5.51072294986875,-4.337450806713015,-3.152201661331894
mp-1190842,Rb6HgS4,Hexagonal,P6_3mc,True,0.0,-1.1043289979545436,11.0,-11.339699205364685,-11.065881933614776,-10.796885845378382,-10.455668909597676,-10.075636601315331,-9.639999640725822,-8.857975017831743,-7.742303568485431,-6.622350765449379,-5.497153548974927,-4.366063938829431,-3.2286678478970288,-2.084696517134386,-0.9339828581219258,0.22353844747256701,1.3879103189919917,2.5591135540441563
mp-29705,Rb6Sn2S7,Orthorhombic,P2_12_12_1,True,0.0,-1.228317907333332,15.0,-17.74277489849242,-17.480333992587788,-17.19437542107289,-16.899028365121225,-16.58949218110226,-16.185801349240855,-15.277540514541657,-14.033357552753797,-12.78218000757678,-11.522762219254052,-10.254295813812071,-8.976266111219939,-7.6883607518132,-6.39040432170988,-5.082339550030142,-3.7641587897144007,-2.435915314368195
mp-1210027,Rb9Co2S7,Cubic,P2_13,False,0.019233327386831256,-1.0447794905555545,18.0,-17.70316331760659,-17.313989902315846,-16.932013643477532,-16.541085345409712,-16.131566949130907,-15.623412148887818,-14.540325451784444,-12.953109659810558,-11.35534210482728,-9.745056937449355,-8.120616958574296,-6.481881206567245,-4.829684467906233,-3.1640532775958192,-1.4789526982156005,0.23248658040546388,1.9572250378798088
mp-1205335,RbAg3S2,Monoclinic,C2/m,True,0.013717584351852441,-0.5364971429166658,6.0,-3.0329609956671293,-2.967080311294028,-2.9066754958480896,-2.845421023270444,-2.779914540446343,-2.686350385664623,-2.462329323700213,-2.178764305961743,-1.890014762635663,-1.5766862283372447,-1.2474407916280867,-0.9119174268449983,-0.570161372015761,-0.22225937717031385,0.13167880293501888,0.4915370376127495,0.8571831193536124
mp-28703,RbAg5S3,Hexagonal,P-62c,True,0.0,-0.47011435518518535,9.0,-4.018939443649025,-3.9408597219256385,-3.871502172769555,-3.8012131964224123,-3.724780438006101,-3.606420263740212,-3.3033152894092055,-2.9379918577087643,-2.5644221345953455,-2.150368855323471,-1.7103269405781987,-1.260398630690472,-0.8006833938332297,-0.33134089332157635,0.14744040080774806,0.6354629728365022,1.1325083011053845
mp-30543,RbAg7S4,Tetragonal,P4/n,True,0.034407742361111104,-0.37650624576388775,12.0,-4.254751967539757,-4.158181874109971,-4.073580256887622,-3.987965442414864,-3.8943150740502235,-3.7448675459440466,-3.3563873248903313,-2.903014144871797,-2.4383329076149245,-1.9172635490134713,-1.3601338218759693,-0.7895092325274877,-0.20554347928611705,0.39153086124786896,1.001446603757298,1.623924847493189,2.258660756646215
mp-9010,RbAuS,Orthorhombic,Cmcm,True,0.0,-0.9272761566666675,3.0,-2.65164807790595,-2.6054448050521386,-2.5615073725540167,-2.516853874510199,-2.469909578888368,-2.408873743240466,-2.271791192095223,-2.0779739227406213,-1.8821541195656297,-1.6840494848418692,-1.47723913249827,-1.264413721387954,-1.0490850139149774,-0.8312544096577135,-0.6109436202172596,-0.3881780633755625,-0.16299637747812667
mp-15013,RbBS2,Trigonal,R-3c,True,0.0,-1.1321511370833335,4.0,-4.477481750369256,-4.448913152952806,-4.423673841355825,-4.397817652051757,-4.369221795382265,-4.314840621624929,-4.132756456455998,-3.894194783053591,-3.653724150045575,-3.410965051169182,-3.1656684778729267,-2.917670096763968,-2.6668667124655507,-2.4131955869122614,-2.1566300471336177,-1.8971556167473302,-1.6347799379881636
mp-9047,RbBS3,Monoclinic,P2_1/c,True,0.0,-1.0168675133333238,5.0,-4.986588505216223,-4.93999021312233,-4.896190622151559,-4.850838983640129,-4.801573306602595,-4.714285445816026,-4.447207162601773,-4.1235365025684985,-3.797686670027229,-3.469171622305999,-3.1376686979795982,-2.802962116001634,-2.4649145907068952,-2.123439667176992,-1.7784964900774476,-1.4300617817777326,-1.078139135595741
mp-30041,RbBiS2,Trigonal,R-3m,True,0.0,-1.0293574356250002,4.0,-3.967367728832084,-3.9095576684234987,-3.8409119977365442,-3.7606404842183885,-3.6766737143831585,-3.566307024153871,-3.3278362438966234,-3.032626774911523,-2.7353425174354964,-2.4356796246346963,-2.1334367637621767,-1.8284858764937484,-1.5207548603686618,-1.2102068880848327,-0.8968339424213756,-0.5806422756066656,-0.2111373792821123
mp-3535,RbCeS2,Trigonal,R-3m,True,0.0,-2.027677305624998,4.0,-7.905633580294817,-7.8334368536961065,-7.762241589939199,-7.688606367167228,-7.610659211910905,-7.505484028264462,-7.271208744847609,-6.974561772754727,-6.6711138889393276,-6.364380493082567,-6.054226583991625,-5.740588362035379,-5.423444509849201,-5.1028017302134066,-4.778694499558972,-4.45116223589134,-4.120259220819269
mp-616544,RbCr3S5,Monoclinic,C2/m,True,0.0,-1.1095048416666653,9.0,-9.890873523847311,-9.829871948816265,-9.772922390369724,-9.712261698041967,-9.643608231573735,-9.50984758037993,-9.088919990964824,-8.607525511781462,-8.119426949818589,-7.623634384477482,-7.119422754062525,-6.6062367873743675,-6.083643227291859,-5.551290776877217,-5.008889075260829,-4.456192045892701,-3.8929715088723036
mp-7295,RbCr5S8,Monoclinic,C2/m,True,0.0,-1.089600406964285,14.0,-15.195194527089757,-15.125403045471572,-15.061960649182929,-14.99281769778737,-14.91129635783261,-14.726098414081694,-14.094972285201303,-13.40008947562781,-12.694427779321511,-11.976424172846922,-11.244928326460432,-10.499052071266025,-9.738097383521776,-8.961493848263231,-8.168763076150594,-7.359498904172952,-6.533319208306615
mp-10985,RbCu3S2,Monoclinic,C2/m,True,0.0065141591666675325,-0.6149534412499994,6.0,-3.494298579850689,-3.426784535737214,-3.365010650336881,-3.3026296325496185,-3.23625467571868,-3.142114320340495,-2.917852861272391,-2.6344081242557973,-2.3461364301855605,-2.0524451999805278,-1.740166185880586,-1.4042967080794115,-1.0623251304792802,-0.7143288752353261,-0.36041147852068,-0.0006828524396205182,0.364731014081773