,pretty_formula,crystal_system,spacegroup,experimentally_observed,"energy_above_hull, eV/atom",Ef,total_atoms,Gf_400,Gf_500,Gf_600,Gf_700,Gf_800,Gf_900,Gf_1000,Gf_1100,Gf_1200,Gf_1300,Gf_1400,Gf_1500,Gf_1600,Gf_1700,Gf_1800,Gf_1900,Gf_2000
mp-1222404,LiBiS2,Trigonal,R-3m,False,0.0,-0.9981624420833315,4.0,-3.853545603311288,-3.8028855351983917,-3.7379965832412845,-3.6617077303092236,-3.5819640729438023,-3.4760454006100368,-3.263920342554679,-3.0493562278386293,-2.8319596939118523,-2.611495298355697,-2.3878187121025407,-2.160853698354863,-1.9305747940259028,-1.624531843316924,-1.2950793724075673,-0.9628154353606924,-0.5772455238177043
mp-753946,LiCoS2,Trigonal,P-3m1,False,0.0,-0.8919901243229162,4.0,-3.395976147236001,-3.3370514663517676,-3.2760769968194685,-3.2131631642196634,-3.145851375401245,-3.0517727697800017,-2.8506917997876338,-2.6461799091142617,-2.4376385219642644,-2.2245824161604815,-2.006536641295184,-1.7836654124545657,-1.5565506148443449,-1.252865427899244,-0.9219804942936918,-0.5810715744697807,-0.23664783939730683
mp-4226,LiCrS2,Trigonal,P-3m1,True,0.0,-1.2521997970833327,4.0,-4.892969469741418,-4.848743134757531,-4.8028784740472785,-4.755518042537746,-4.704790903190179,-4.627750903613347,-4.444202917029747,-4.257777463669894,-4.067965100764029,-3.874417414965377,-3.6768916163056558,-3.4752171528088205,-3.2692721733485204,-2.98651117051696,-2.6791943553152535,-2.367827539488804,-2.052336487260243
mp-1407369,LiCuS,Orthorhombic,Fdd2,False,0.004154272013889404,-0.8644688868749988,3.0,-2.4944052081557464,-2.460611118049769,-2.425741416260304,-2.3904106108363203,-2.35304604260657,-2.3018158762069936,-2.196426334311115,-2.08858719624557,-1.9779868572093013,-1.8644093510280593,-1.7434641590453932,-1.6134982597496057,-1.4803636756888165,-1.2716578058195371,-1.0397721601571295,-0.8053312133317538,-0.5683787858415803
mp-753722,LiCuS2,Monoclinic,C2/m,False,0.06503991041666968,-0.6456720825130189,4.0,-2.4672591047182246,-2.422984942590234,-2.3771045840824065,-2.329827952106491,-2.2793431861641267,-2.202755955390746,-2.0199219181049752,-1.834523416063992,-1.646093500149897,-1.4543096677792504,-1.2547077474218664,-1.045583269912501,-0.8327541675108208,-0.5437941223203557,-0.23108046199247578,0.08477114009089526,0.4037209123484651
mp-15789,LiDyS2,Trigonal,R-3m,True,0.0,-2.1173803393229154,4.0,-8.235436314607975,-8.160360197417024,-8.083223927272675,-8.004347288723201,-7.92196920636637,-7.813217114378814,-7.597941488926493,-7.379783214545252,-7.158202791979867,-6.9328113870927695,-6.703315424819547,-6.469486313074293,-6.231146233481862,-5.91344983928119,-5.564128140043118,-5.210683890042976,-4.853209718819249
mp-15791,LiErS2,Trigonal,R-3m,True,0.0,-2.1213996764062486,4.0,-8.252219099277808,-8.177231762790921,-8.100052646672916,-8.021003608333132,-7.9383318638136,-7.829176248026816,-7.613412111471545,-7.394731123779755,-7.172675663708351,-6.946947066576158,-6.717347108927815,-6.483749805300215,-6.246074761788334,-5.931815855344636,-5.592700571676153,-5.239088067607833,-4.882057136330543
mp-3647,LiGaS2,Orthorhombic,Pna2_1,True,0.0,-1.187989849322916,4.0,-4.623864949890164,-4.561043075809028,-4.496427411421539,-4.43037712563623,-4.361170527411136,-4.265979617435814,-4.064711875555554,-3.861100428623663,-3.654731185479437,-3.445349011524094,-3.232804395537345,-3.017019027860605,-2.79796329968498,-2.5031839459201306,-2.185033419884636,-1.8641066663497519,-1.5404248011471724
mp-1222370,LiGdS2,Trigonal,R-3m,False,0.0,-2.0636742230729173,4.0,-8.05826816714931,-7.991769729903361,-7.923203884690285,-7.852785736574491,-7.7787148257934895,-7.6781092586491075,-7.470837130626372,-7.260601512093125,-7.046958255403201,-6.829613878028086,-6.608371192942962,-6.383115615420579,-6.1511798209449395,-5.836547296252417,-5.497898939497569,-5.15586389765925,-4.81049541591569
mp-1207212,LiHfS2,Trigonal,R3m,False,0.014019902500002956,-1.6581386830729166,4.0,-6.491732752677674,-6.44059892351149,-6.387502365862037,-6.332638492613594,-6.274191297545666,-6.189268522654756,-5.997740336286954,-5.803306699518499,-5.605531756147496,-5.404144825117161,-5.1989808487492075,-4.989952189510249,-4.777019910716593,-4.487724528694704,-4.174411241749422,-3.857669812499343,-3.5375182474845595
mp-15790,LiHoS2,Trigonal,R-3m,True,0.0,-2.120153311822916,4.0,-8.24327135518702,-8.16753623111318,-8.089734735502747,-8.01021360009785,-7.927252170287062,-7.817966479511142,-7.602171765297921,-7.383485074280982,-7.161365870774568,-6.935425320641107,-6.705368812385655,-6.470973972505506,-6.232059873333914,-5.91601882163109,-5.568077810799554,-5.212845881065823,-4.853911542157013
mp-1188392,LiInS2,Orthorhombic,Pna2_1,True,0.0,-1.1272425393229177,4.0,-4.379063611732051,-4.324500429958562,-4.265254925982569,-4.204114625452,-4.13942416887901,-4.0484125606324906,-3.851034956362258,-3.651052466546015,-3.4480727650642597,-3.2418635187899394,-3.0322917993912952,-2.8192917343761446,-2.6028492613935894,-2.3105194067975594,-1.9946649882119614,-1.6758913147133878,-1.3542236478556653
mp-30248,LiMoS2,Triclinic,P-1,True,0.022671608333332927,-1.1228799584895839,4.0,-4.366156061854288,-4.319520043621404,-4.2713006304804155,-4.221689089593471,-4.168870451170612,-4.089958675791533,-3.9048197860801994,-3.717147524529648,-3.5264956706326487,-3.3325769604438875,-3.1352097533965457,-2.9342836104855072,-2.7297378299858774,-2.449084944599729,-2.1446432054380313,-1.8369733550644547,-1.526060234242026
mp-7936,LiNbS2,Hexagonal,P6_3/mmc,True,0.0,-1.5539668133333349,4.0,-6.063237719319661,-6.0096375692583806,-5.954439514261532,-5.897855550101926,-5.838083144156004,-5.752243512017195,-5.560212004184259,-5.365693763886102,-5.168250862059758,-4.967610544787382,-4.763600499376951,-4.556123760420281,-4.3451320633588795,-4.058150378061212,-3.747510429235188,-3.4337874694719366,-3.1169767038398204
mp-36791,LiNdS2,Tetragonal,I4_1/amd,False,0.02052852406250416,-2.03653448526042,4.0,-7.959700351196886,-7.896400065708168,-7.8305908528451615,-7.762414231104415,-7.689968170531181,-7.590257806499161,-7.383034117843133,-7.171874766836407,-6.954260671905267,-6.730661163393669,-6.497152050079248,-6.258756333388046,-6.015554266147692,-5.695186898446373,-5.35009478019799,-5.000945406311132,-4.647828297032683
mp-676685,LiNi9S10,Monoclinic,P2_1/c,False,0.09619618037499933,-0.5999580459166666,20.0,-11.150850316364828,-10.869306410427033,-10.588377426098376,-10.289954559530587,-9.970609435318977,-9.517578436659493,-8.53029013757259,-7.527079550984691,-6.505506215391916,-5.463980419348786,-4.401440568302263,-3.3172152777154693,-2.2109129423686014,-1.0098594013951612,0.3019329879243102,1.6640619223170425,3.049338856360354
mp-2365577,LiNiS2,Trigonal,P-3m1,False,0.09063996625000037,-0.8716884183333322,4.0,-3.3274048745503784,-3.271290840825153,-3.212532107325782,-3.150968591263644,-3.085514969944184,-2.993521510108678,-2.7949029466161504,-2.593368568417638,-2.3884742278669764,-2.179940952463121,-1.9675912473613817,-1.7513240014314437,-1.5310899136842782,-1.2344160268494218,-0.9060567220062374,-0.5710179922754683,-0.2323214198825525
mp-675419,LiPrS2,Monoclinic,Cc,False,0.03416889437500359,-2.0158690500520873,4.0,-7.8735845631811845,-7.809553169897498,-7.7431164922928435,-7.674408793850045,-7.601533226767011,-7.501500108570122,-7.294079073843739,-7.081930543839267,-6.8637439149847435,-6.607324372938421,-6.345015540127731,-6.07824918618102,-5.807079653162587,-5.459123116827828,-5.086794216327306,-4.710745936542143,-4.331044996247497
mp-756006,LiSbS,Triclinic,P1,False,0.0,-0.9537415471527778,3.0,-2.8011689697095505,-2.776858435733578,-2.7513624284375946,-2.7252871644263035,-2.6970091994323253,-2.6546262208153433,-2.5358897432631817,-2.413512810858657,-2.288193302140092,-2.1598209668476245,-2.028352075981233,-1.893787751160271,-1.756157348197097,-1.5430489381734285,-1.3068509218130195,-1.0910478038025238,-0.8078713094957841
mp-1079885,LiSbS2,Monoclinic,C2/c,True,0.0,-0.9209532333333339,4.0,-3.582193839969431,-3.541119321783815,-3.4983287455818384,-3.454023742830984,-3.406341667936762,-3.3323177127583445,-3.1298528276286612,-2.9236326190610673,-2.7141996212770465,-2.501337047607543,-2.2849275161788025,-2.064920700956633,-1.84131186746494,-1.5416653699324536,-1.2183554267189418,-0.9148577412628196,-0.5433999900010553
mp-1001786,LiScS2,Trigonal,R-3m,True,0.0,-2.011990884322916,4.0,-7.919224216873142,-7.871258225641547,-7.821501553395199,-7.770172414490112,-7.7154465112615265,-7.634404638512074,-7.446878616658121,-7.256526949554576,-7.062866105195012,-6.865576690287586,-6.664442862057877,-6.459324125015309,-6.250129720949525,-5.961872312116409,-5.648960630012489,-5.325160578625484,-4.996673509056819
mp-1222296,LiSmS2,Trigonal,R-3m,False,0.0,-2.0529491533333335,4.0,-8.0156415408307,-7.9484038782516535,-7.877420826672157,-7.802870179657427,-7.722931785264837,-7.614719604074085,-7.3981058772923305,-7.1767936752874135,-6.95007974277986,-6.715923175362105,-6.473286240846873,-6.222694868576457,-5.967197648425698,-5.634444958357581,-5.276878384716544,-4.915174750285967,-4.549424611743277
mp-1001783,LiSnS2,Trigonal,R-3m,True,0.06139511890624938,-0.960049675833333,4.0,-3.693103346956992,-3.639659607553688,-3.570116227193669,-3.498026135473663,-3.422497822208827,-3.320741636018451,-3.112692003941692,-2.902102781442516,-2.6885774966792884,-2.4718755250806925,-2.251860829023368,-2.028465463154066,-1.8016691465386883,-1.4990279419617014,-1.172899484894339,-0.8438880479826665,-0.5120168199194435
mp-1206881,LiTaS2,Hexagonal,P6_3/mmc,False,0.0,-1.5226124901666687,4.0,-5.924091186867923,-5.866859991305626,-5.807933466337634,-5.74755262779169,-5.683937744515969,-5.594225578561897,-5.398304954025165,-5.1998913784400145,-4.998556250618275,-4.794033035225302,-4.586158747443873,-4.374849895462736,-4.160085161917262,-3.86940920885605,-3.555167234583939,-3.2379417467057925,-2.9177383145953026
mp-1222297,LiTbS2,Trigonal,R-3m,False,0.0,-2.1123770605729177,4.0,-8.22498892270396,-8.152084513013955,-8.077020453039362,-7.999964172040064,-7.919045769407843,-7.811332566348397,-7.596652237555958,-7.378667432607571,-7.15689358306627,-6.931012332070749,-6.700806800416055,-6.466125091875743,-6.225637913752233,-5.902031141754275,-5.551834044249413,-5.197713390644864,-4.839749373312715
mp-9615,LiTiS2,Trigonal,P-3m1,True,0.0,-1.6766462479166657,4.0,-6.558648953660272,-6.50574360580209,-6.4508237079339725,-6.394148931633264,-6.333964420080935,-6.247405898897879,-6.054312443514192,-5.858302136993988,-5.657577253414686,-5.451015165821181,-5.241002508508025,-5.027418478164775,-4.810188899469605,-4.516810758666582,-4.199586760408686,-3.8790589915099822,-3.550491351654575
mp-7543,LiVS2,Trigonal,P-3m1,True,0.05358763535714495,-1.3352691570833324,4.0,-5.203705932439231,-5.153644024063105,-5.101774851783693,-5.048331139984475,-4.9915186474861555,-4.908450298437899,-4.718987969741532,-4.526817112445832,-4.331478032446633,-4.132676210784889,-3.930218606157915,-3.7239864881163305,-3.513913972782574,-3.227513592858716,-2.917105672316797,-2.6032519901510174,-2.285936350693869
mp-15788,LiYS2,Trigonal,R-3m,True,0.0,-2.116727455572917,4.0,-8.351480159899118,-8.30647857337975,-8.259484201891643,-8.210740134123615,-8.1584438374521,-8.079715491039995,-7.8944242268028635,-7.706272078678011,-7.5148190447414045,-7.319791334644663,-7.121020781417897,-6.91841456537506,-6.711931676971389,-6.429105377519618,-6.1208132796895125,-5.801067957935705,-5.4778440960019985
mp-1206759,LiZrS2,Trigonal,R3m,False,0.0,-1.7430471820833393,4.0,-6.847899836541375,-6.80116823305407,-6.752699842939743,-6.702695261235338,-6.649315680248634,-6.569639821921195,-6.383496397377786,-6.194540801181719,-5.999988625542764,-5.800948678443886,-5.59856076824815,-5.392727929547378,-5.1833925699082695,-4.89807136775503,-4.589083610629167,-4.276986931802746,-3.9617661720387973
mp-1222528,Lu(CuS)3,Trigonal,R-3,False,0.005162122053569362,-0.9898065643005935,7.0,-6.8685054578505245,-6.83605592498418,-6.809718697129083,-6.782471389678763,-6.750492109278584,-6.678801800649805,-6.4467509129558,-6.209546046214925,-5.9662293440259795,-5.716067488691014,-5.44577919521592,-5.150262660336303,-4.846922409000383,-4.535757215692051,-4.216795284818984,-3.890079687127372,-3.5487748044567446
mp-1104347,Lu(Mo3S4)2,Trigonal,R-3,True,0.029933599833327662,-0.9898866052777748,15.0,-15.070812908560704,-15.079645283694306,-15.098003471478506,-15.112323229238536,-15.115227347038235,-15.015135028116397,-14.491398238822946,-13.9586409133617,-13.414901856249914,-12.858823991448707,-12.289482346549548,-11.706212477309467,-11.108552259851983,-10.49615060531972,-9.868743474941468,-9.226129409147923,-8.561252286301823
mp-8269,Lu2CdS4,Cubic,Fd-3m,True,0.0,-1.9374851413690481,7.0,-13.51905196029569,-13.482544042004855,-13.448313635752267,-13.400902848821389,-13.347330851235304,-13.242116437121926,-12.925106505870039,-12.543960370354933,-12.118900668552763,-11.688632855631838,-11.252633588246994,-10.810512158122707,-10.361978629928398,-9.906797026632173,-9.444786711889265,-8.975792798214009,-8.485902401549682
mp-14304,Lu2MgS4,Cubic,Fd-3m,True,0.0,-2.1770498369047635,7.0,-15.114548541704002,-15.058067804104045,-15.004740362342925,-14.94862793815194,-14.886421671290421,-14.772471417709344,-14.439089226820823,-14.098661571162268,-13.752474466436938,-13.399910156951355,-13.009289161100526,-12.546724372205023,-12.077747485239499,-11.602123559602589,-11.11966884965793,-10.63023261364199,-10.119897821775918
mp-14305,Lu2MnS4,Cubic,Fd-3m,True,0.0,-1.931858224466341,7.0,-13.466649469464071,-13.426455064189808,-13.388768258532169,-13.347659065666729,-13.29984142682453,-13.199709764469493,-12.886543014058198,-12.566292450947131,-12.23992383380479,-11.90681318835449,-11.565868170888333,-11.21493303193266,-10.849022805841308,-10.473266080022446,-10.089140506984508,-9.696578259406618,-9.281741076230432
mp-1192803,Lu2PbS4,Orthorhombic,Pnma,True,0.0,-1.9122370158333328,7.0,-13.349975887198484,-13.315151009881403,-13.283193373575985,-13.239987263106244,-13.190478987428774,-13.089286838002678,-12.776298135007547,-12.458955577337214,-12.136346911533927,-11.807836762585147,-11.47296708226931,-11.131393801684878,-10.7828622241394,-10.427165392655919,-10.064141326639264,-9.693655867214439,-9.301807531060582
mp-18332,Lu2ZnS4,Orthorhombic,Pnma,True,0.0013822324999974711,-1.9792242908333317,7.0,-13.76887184807411,-13.722064295176525,-13.678358216591118,-13.630996553927927,-13.567202654025085,-13.45154868718297,-13.12390539069263,-12.791703026281507,-12.435295858603476,-11.990960986087458,-11.540895695538065,-11.084708242249219,-10.622107654459821,-10.152860027999044,-9.67678265366104,-9.193722716821227,-8.689765260561813
mp-1210964,Lu3CrS6,Orthorhombic,Pnnm,False,0.019964872999996608,-1.98892699325,10.0,-19.71913681831624,-19.638952212327304,-19.56285182000607,-19.482666869319075,-19.39383195216701,-19.22811626807654,-18.745226330828906,-18.25618278468074,-17.75947157082394,-17.253993122958992,-16.738934216489074,-16.213663258228493,-15.677688026434852,-15.130595159387642,-14.572039693062475,-14.001723219578729,-13.398692154467845
mp-1197390,Lu3InS6,Orthorhombic,P2_12_12,True,0.04624431143749774,-1.9045989945000001,10.0,-18.91111174390591,-18.832923226141716,-18.755774925569085,-18.674143040875393,-18.583677741512247,-18.41632338376644,-17.931936763846505,-17.4416691162563,-16.944123498837953,-16.438316425511683,-15.923544533317187,-15.39928090855263,-14.865141118251074,-14.320812334453741,-13.766052199759027,-13.200661803617493,-12.603787058891793
mp-1222396,Lu4CrS7,Monoclinic,Cm,False,0.06383927736111161,-2.030373852013888,12.0,-24.17767405888415,-24.086898249837922,-24.001450506572635,-23.911355840607385,-23.811046007338845,-23.620775154661466,-23.06010922110059,-22.491844208452605,-21.91416987930318,-21.32576893059702,-20.725664767316566,-20.11309647199044,-19.48746892187647,-18.84827934611159,-18.19510622192363,-17.527582753839376,-16.81779851104637
mp-1222397,Lu4MnS7,Monoclinic,Cm,False,0.04404048500000002,-2.0610389051748084,12.0,-24.533049604132547,-24.437874400445992,-24.34716391590619,-24.250971145656642,-24.14376515659319,-23.945847772414837,-23.376366213711492,-22.79679503334965,-22.20735228846854,-21.606871994870723,-20.993861415133082,-20.365854703557062,-19.717627002208474,-19.054104363357403,-18.37659713965272,-17.68489192734011,-16.951232723756615
mp-1173065,LuAgS2,Tetragonal,I4_1/amd,False,0.0022184006250007826,-1.5129678968229143,4.0,-6.023537384033074,-6.004004796255842,-5.987073920063743,-5.969072209590993,-5.94797222678832,-5.900738686238632,-5.747096656013368,-5.59061447051105,-5.430724646852052,-5.2607347803956195,-5.083361090345879,-4.901680161587441,-4.7155991630488785,-4.525053283803722,-4.329998231562414,-4.130401910623606,-3.9193486072599892
mp-1001780,LuCuS2,Trigonal,P3m1,True,0.0,-1.5823799580729165,4.0,-6.282487297029648,-6.25851902348947,-6.23724055812975,-6.214972100070975,-6.189691393416531,-6.1383745534852014,-5.980761158375886,-5.820427833931369,-5.656806060841498,-5.489470729900038,-5.313861281537216,-5.128173749256593,-4.938129677278244,-4.743661145384097,-4.544721788423529,-4.341277437834123,-4.126410307027507
mp-1001604,LuTlS2,Trigonal,R-3m,True,0.0,-1.7253446887500008,4.0,-6.859748974074009,-6.836348624957603,-6.812333943481678,-6.780830849863259,-6.745907154019076,-6.68465919720976,-6.516921909143278,-6.346360012257739,-6.172485828824579,-5.9949675283855575,-5.813579940291458,-5.628162876871569,-5.438606924165935,-5.244830688359549,-4.994246994849546,-4.694938999009871,-4.384804170509604
mp-3872,Mg(AlS2)2,Orthorhombic,Pnma,True,0.0,-1.4726824278571395,7.0,-10.192325442463584,-10.138978172510171,-10.088823582755861,-10.03566014157651,-9.976006941262918,-9.864058373186086,-9.516238006683501,-9.153109751199866,-8.784180589428127,-8.40906907183638,-7.996325804398021,-7.51228547656773,-7.022693288010012,-6.527525729952282,-6.026800124281623,-5.520568869619028,-5.00889638407908
mp-1390919,Mg(CoS2)2,Cubic,Fd-3m,False,0.07154925357142705,-0.9064611928571428,7.0,-6.201635600450168,-6.140698761149601,-6.082432241059379,-6.020564031279103,-5.950458640485535,-5.827529302356773,-5.483947111752407,-5.131928566602394,-4.772544105059081,-4.404871260852209,-3.996741357165102,-3.514914019971071,-3.0263035425761178,-2.5310957751753804,-2.0233071068684545,-1.4961121832577238,-0.962524585540134
mp-1400392,Mg(CrS2)2,Cubic,Fd-3m,False,0.0,-1.2000704771428528,7.0,-8.354351567933291,-8.319096849072329,-8.287335375265112,-8.252859396304293,-8.212208733091341,-8.119642035690312,-7.807411240542397,-7.487850998658333,-7.162210014242197,-6.829839438684498,-6.459034916047456,-6.015886538179908,-5.565901125723705,-5.10882715518896,-4.644460152328639,-4.172634865351741,-3.6931980619608886
mp-1246794,Mg(CrS2)4,Cubic,F-43m,False,0.009330775769223365,-1.0377289157692304,13.0,-13.41804404983741,-13.352189054623858,-13.291593788512733,-13.225359426188747,-13.147390394033222,-12.966699041957831,-12.3554949142113,-11.733556680218236,-11.101192686837411,-10.457074446213392,-9.76899868148665,-9.002671139155849,-8.223299782953575,-7.4303902545103035,-6.6235358687448205,-5.802402486156982,-4.966678881409358
mp-2219131,Mg(CuS)6,Trigonal,P3m1,False,0.05335337177350219,-0.5465966023076917,13.0,-6.810880662993861,-6.702738154324269,-6.604998143063058,-6.504902447518299,-6.395509766756186,-6.207272052699082,-5.691764554109355,-5.16468551340223,-4.626589947903392,-4.076264413546607,-3.456120340421606,-2.7225843124629208,-1.9764086785407287,-1.2177136835917217,-0.44667822578595917,0.33648874477727375,1.1315481088222548
mp-667323,Mg(GaS2)2,Monoclinic,C2/c,True,0.0,-1.1812828776190467,7.0,-8.108157012271475,-8.01317323987201,-7.921371783366317,-7.826978120509944,-7.726830564197935,-7.575424070655929,-7.205215789570691,-6.828745585198552,-6.44745286496169,-6.0608753377466105,-5.637495205111516,-5.143587043540154,-4.6448421583093005,-4.14119351056398,-3.632621110692073,-3.119137972954313,-2.6007815682714224