,pretty_formula,crystal_system,spacegroup,experimentally_observed,"energy_above_hull, eV/atom",Ef,total_atoms,Gf_400,Gf_500,Gf_600,Gf_700,Gf_800,Gf_900,Gf_1000,Gf_1100,Gf_1200,Gf_1300,Gf_1400,Gf_1500,Gf_1600,Gf_1700,Gf_1800,Gf_1900,Gf_2000
mp-561751,CsErS2,Trigonal,R-3m,True,0.0,-2.110576687239579,4.0,-8.205361160211956,-8.125367698908299,-8.046585059414163,-7.965682717939735,-7.880878870472119,-7.769334116965007,-7.513699368885185,-7.219371224091816,-6.9224283104997,-6.622503559012463,-6.319342778925961,-6.012764017528283,-5.702639205109875,-5.388874510689331,-5.07082762155942,-4.7382658927106025,-4.402262935181087
mp-1076928,CsEuS2,Trigonal,R-3m,True,0.043065025000000645,-1.7440029351562494,4.0,-6.737738145911433,-6.6576627219821205,-6.579025098149109,-6.498533098552315,-6.414449485691772,-6.303983571756238,-6.049834980447557,-5.757241735753308,-5.460426218503249,-5.160808165840324,-4.8582183743641085,-4.552554696513754,-4.243767831300234,-3.9318406436016007,-3.511971624980717,-3.096382397930766,-2.6783292961929632
mp-542475,CsFe2S3,Orthorhombic,Cmcm,True,0.0,-0.9513498128591902,6.0,-5.644022768278603,-5.601559547692598,-5.560929142709403,-5.516338752564238,-5.464395352017154,-5.370083246709421,-5.075028697607092,-4.737496057891089,-4.388433864862962,-4.034339242504203,-3.6748847991463203,-3.3098587551229137,-2.9391317099169108,-2.562632357901933,-2.18032379891385,-1.7748873292099265,-1.3628716977307391
mp-505632,CsFeS2,Orthorhombic,Immm,True,0.0,-1.026083639913792,4.0,-4.0049255272498785,-3.9599797796804,-3.916125664409118,-3.869682344125984,-3.818542575630665,-3.739516645356616,-3.514793216752796,-3.2502974672503218,-2.9796744858719393,-2.706081067334301,-2.4292920409881944,-2.149158619898772,-1.8655890094251442,-1.5785297993767013,-1.287951207491357,-0.9851887081563717,-0.6785144406785939
mp-573145,CsGa3S5,Monoclinic,P2_1/c,True,0.0,-1.0327612279513891,9.0,-9.122066454810689,-8.99524407361254,-8.872016643133732,-8.745237689075829,-8.611058799142464,-8.412726240574116,-7.912936439592103,-7.372804120505819,-6.827857131502126,-6.277385388226286,-5.720944701657178,-5.158252381825697,-4.5891508621325485,-4.013564536161775,-3.431472514982417,-2.8428961211220525,-2.2478880473546745
mp-5038,CsGaS2,Monoclinic,C2/c,True,0.0,-1.2320298214062504,4.0,-4.787613575626831,-4.717574256679549,-4.6491437488665515,-4.579028839897226,-4.505478818674671,-4.405687450929643,-4.162337777475462,-3.880867853392613,-3.5973998366782993,-3.311610188318541,-3.023293429844257,-2.7323152843480623,-2.4385984672165373,-2.1421020054254685,-1.8428085538791672,-1.5407212555144127,-1.2358560440102355
mp-562726,CsGaS3,Monoclinic,P2_1/c,True,0.0,-0.9883059401875016,5.0,-4.812357041981919,-4.738777856989417,-4.666276898434854,-4.59115636889039,-4.511426355932018,-4.3932181297899815,-4.079364166922704,-3.72727508484121,-3.3729176972258665,-3.015861928653499,-2.6558286477812896,-2.2926321300483163,-1.9261610005526961,-1.5563505694172335,-1.1831693091822562,-0.8066115615363039,-0.4266892112415235
mp-9084,CsGdS2,Trigonal,R-3m,True,0.0,-2.084005141406248,4.0,-8.126992594501797,-8.053229716543665,-7.98080203205904,-7.90627226491319,-7.827810935288685,-7.722557914528558,-7.47315685908586,-7.185015767555616,-6.894226741449563,-6.6004278938239915,-6.303366070405291,-6.002870719217414,-5.696226839939834,-5.37983021137505,-5.059991933263355,-4.736749350749127,-4.410150526857924
mp-1078726,CsHoS2,Hexagonal,P6_3/mmc,True,0.0,-2.1191852751562514,4.0,-8.233085936589518,-8.151657865315993,-8.071566023946511,-7.9895047630240565,-7.903724407882264,-7.791362757003096,-7.53501060888241,-7.239989938380973,-6.942296458970929,-6.641472932099509,-6.33716877902298,-6.029105658989836,-5.717054968528801,-5.400821306466212,-5.0732618677903325,-4.738393890893187,-4.399800703349236
mp-22007,CsIn5S8,Monoclinic,C2/m,True,0.0,-0.8743778887499981,14.0,-11.838073393176025,-11.648488142508274,-11.45004132266418,-11.243874981034416,-11.024374661893798,-10.701124152389166,-9.917071643172479,-9.089148445904033,-8.252396924166348,-7.405834455622561,-6.548861055142186,-5.681107805526398,-4.802414590479998,-3.9127126274166417,-3.012029305096746,-2.1004559471653614,-1.1781027341020724
mp-559459,CsInS2,Monoclinic,C2/c,True,0.0,-1.18026703953125,4.0,-4.559002905393429,-4.492285417609976,-4.424288209064659,-4.354146424206251,-4.280175683491982,-4.1796267563319365,-3.9352303593439615,-3.6524525312329423,-3.3674371950372803,-3.079883613214724,-2.7896028901847263,-2.496473186206301,-2.2004327631240255,-1.9014489393579552,-1.599514734117733,-1.2946436546454692,-0.9868557803423279
mp-561586,CsLaS2,Trigonal,R-3m,True,0.0,-2.161194105156248,4.0,-8.4988387433409,-8.441980480092477,-8.386232504891849,-8.328251856782806,-8.266483710039232,-8.177995385866828,-7.945368354886651,-7.673950502722801,-7.397445994938417,-7.11179703330825,-6.82300324896574,-6.530972858655373,-6.235670034985052,-5.9370848978465665,-5.635231195060221,-5.33013798032613,-5.021842952364517
mp-1202825,CsLu7S11,Orthorhombic,Cmce,True,0.0,-2.3276776703327284,19.0,-44.078884476763434,-43.96432440790854,-43.857229998750846,-43.74217510489138,-43.61060080565983,-43.33735052035482,-42.444639595052365,-41.50439922150348,-40.55043175725814,-39.580709901250074,-38.593746152282996,-37.58839510319318,-36.56377998735214,-35.51916827544814,-34.45395884479475,-33.36763623101628,-32.21148589262805
mp-1087532,CsLuS2,Hexagonal,P6_3/mmc,True,0.0,-2.0519413128304578,4.0,-8.0594875454985,-8.002253893190616,-7.946614541989554,-7.889194401592569,-7.828169174334902,-7.740660075809986,-7.509277596693809,-7.2393830962074,-6.967022036488498,-6.691793146233134,-6.4134101053906285,-6.13165779547201,-5.846379126712796,-5.557449175215579,-5.264768717872546,-4.968259019608352,-4.660958763752225
mp-6973,CsNaS,Tetragonal,P4/nmm,True,0.0,-1.2770575092708352,3.0,-3.58484801656477,-3.5013167514413226,-3.4191465228180427,-3.3356881189947183,-3.2495761669067442,-3.149149842228052,-2.9569852437787127,-2.7265582285140133,-2.4699746658516837,-2.150135136230937,-1.8286790738377343,-1.505491520071713,-1.180501296983504,-0.8536652376385483,-0.5249594506944852,-0.1943751517256631,0.13808633242161417
mp-1095172,CsNdS2,Hexagonal,P6_3/mmc,True,0.0,-2.091489058281251,4.0,-8.151614804896164,-8.077223930594457,-8.0037267303591,-7.927612341487493,-7.846949713969955,-7.738765748221386,-7.48558698404459,-7.192696011940064,-6.894109999491993,-6.590229872629136,-6.277075472880336,-5.959613834422836,-5.637877534279738,-5.311919914605354,-4.981811726899325,-4.647628664235752,-4.309455064708857
mp-9037,CsPrS2,Hexagonal,P6_3/mmc,True,0.0,-2.079643030572914,4.0,-8.095430563795572,-8.018972060927679,-7.943510875179457,-7.865528888834577,-7.783100234036022,-7.673256993351365,-7.418544362333,-7.123327690459509,-6.822832623316835,-6.484795942148038,-6.141505302131748,-5.794336505647522,-5.44329621895513,-5.0884129098760855,-4.729731419146697,-4.367312929813604,-4.001218978499294
mp-1199798,CsReS2,Orthorhombic,Pnma,True,0.0,-1.0473314451221267,4.0,-4.1216022395103655,-4.084902526662213,-4.0499038672658045,-4.013174167339069,-3.9728777284813837,-3.906150276313641,-3.6956323579972987,-3.4467288628357786,-3.195531892340819,-2.9416982153183113,-2.6850026611190354,-2.4252922970860182,-2.162479474300499,-1.896507673280265,-1.6273512574853737,-1.3550009326861918,-1.0794653775480232
mp-561639,CsSbS2,Monoclinic,P2_1/c,True,0.0,-0.8564455114062532,4.0,-3.326189772915952,-3.28150733067707,-3.2385114318624675,-3.1937513267404736,-3.145335349661671,-3.070320457526427,-2.8293831616357004,-2.5489139967300307,-2.2659917461887993,-1.9803312189277609,-1.6917590658243622,-1.4001689935956172,-1.1055085919609038,-0.8077545072150745,-0.5069111593036384,-0.22586244983052595,0.12316912691996151
mp-28701,CsSbS6,Monoclinic,P2_1/c,True,0.0,-0.4440100364843751,8.0,-3.544833109485483,-3.497744424603031,-3.4502199443594677,-3.3971905784742287,-3.3358078559894597,-3.1988787518034805,-2.6876775197976768,-2.1364849444347342,-1.5817584318266844,-1.0227866452525145,-0.45910162409472655,0.109608715543839,0.6835331450976234,1.2627898856837163,1.8474312468125547,2.4146085318731636,3.052115442248745
mp-9082,CsSmS2,Trigonal,R-3m,True,0.0,-2.055099632413793,4.0,-8.008134061735632,-7.932754421085384,-7.857031992875324,-7.777492189471517,-7.6922858388764075,-7.578548666710892,-7.318928475150158,-7.018833262789227,-6.714096023506525,-6.402607448479299,-6.08327383827147,-5.756565154976545,-5.425482312664826,-5.090087981365431,-4.750453949008531,-4.406665236543025,-4.058807218493676
mp-561710,CsSnS3,Triclinic,P-1,True,0.0,-0.8407425366875003,5.0,-4.102034028709927,-4.049456706695972,-3.9836517604695953,-3.9141151532911467,-3.839687153593747,-3.7265373795373713,-3.417525254774307,-3.0700821254262447,-2.7201924244926126,-2.3674405865777066,-2.0115609539356356,-1.6523781663108137,-1.2897901766761564,-0.9237416230292688,-0.5542061600631403,-0.18118745734111208,0.1953005275135986
mp-1225870,CsTaS3,Hexagonal,P6_3mc,False,0.0,-1.4360794728976913,5.0,-7.1079932515520685,-7.063762963182523,-7.020709362151573,-6.975016497950587,-6.9246364180457025,-6.835665154029028,-6.550916526609392,-6.227783533978757,-5.90221847979001,-5.573779887884129,-5.242175153321354,-4.907213369388095,-4.568791452626741,-4.226842640299028,-3.8813281499315497,-3.5322298860464496,-3.179544186947874
mp-972199,CsTbS2,Hexagonal,P6_3/mmc,True,0.0,-2.1248452751562468,4.0,-8.265186825712455,-8.185749047974268,-8.107554221392132,-8.027117394026781,-7.94253964521506,-7.830910061203872,-7.574831877655473,-7.279672672374091,-6.981484126080667,-6.679879477498692,-6.3745858801744255,-6.065395470632622,-5.750931280371175,-5.426291477164958,-5.095635530967256,-4.7610384093508,-4.42257512253501
mp-1213394,CsTlS2,Monoclinic,C2/c,False,0.0,-0.8966178038721284,4.0,-3.432429203393871,-3.3736044511984717,-3.3132719635238965,-3.244795003179283,-3.1724227554246807,-3.0734028803785756,-2.83046194893668,-2.549075327678681,-2.265393158226174,-1.9791178123285134,-1.6900645401272811,-1.39811668403416,-1.1032135423242586,-0.8053276155702971,-0.45192562355714294,-0.05114876176859795,0.3521531241092628
mp-1078990,CsTmS2,Hexagonal,P6_3/mmc,True,0.0,-2.11429242015625,4.0,-8.214743489162313,-8.133823728555438,-8.054429864640188,-7.973195098558088,-7.8882681854505154,-7.776714373662104,-7.521141044577246,-7.226939613902429,-6.930203219579928,-6.630585521124031,-6.32786342074659,-6.021890204373827,-5.712579259517515,-5.399879248848112,-5.083766608686734,-4.7562960962107095,-4.423514634372012
mp-985699,CsV5S8,Monoclinic,C2/m,True,0.08910758416666198,-1.2624521021182267,14.0,-17.492473627910847,-17.39006524404291,-17.29317058249471,-17.19015768433471,-17.074717685380445,-16.855853971680133,-16.176048340145776,-15.451853805293048,-14.717975890781148,-13.973121045113238,-13.216388718304222,-12.447145703369266,-11.66497277637987,-10.86958868649037,-10.060808354201868,-9.238505452747454,-8.402582876500048
mp-15065,Cu(IrS2)2,Cubic,Fd-3m,True,0.0,-0.4767895844642851,7.0,-3.331604833825453,-3.306186565890145,-3.2845382699609544,-3.2606346076043917,-3.2311470263996434,-3.150447147338893,-2.8583041375209404,-2.562088145702295,-2.2608433883428134,-1.9539033975139521,-1.6365721605437145,-1.3069685820497625,-0.9707974409058018,-0.6279999897011272,-0.2785697124205466,0.07747001236987572,0.4400786044578151
mp-675745,Cu(Mo3S4)2,Triclinic,P1,False,0.067402601666668,-0.704998445166666,15.0,-10.653611258165697,-10.627106561957746,-10.610329782354382,-10.589649308696169,-10.557671348158408,-10.422821322563102,-9.864471926870843,-9.29727300604877,-8.719287202516417,-8.129167804540208,-7.521756020983336,-6.894842089677763,-6.25389123296662,-5.598663260059592,-4.929000884530389,-4.244805253432503,-3.5460161512280663
mp-28888,Cu(PtS2)2,Monoclinic,P2/m,True,0.0,-0.4288776144642879,7.0,-2.9576827118101843,-2.921944780288581,-2.889603705781126,-2.8546942628252596,-2.813960449137496,-2.7218443629862783,-2.4181773573023992,-2.1103793295079685,-1.7975380261452356,-1.479024290784852,-1.1501732036708212,-0.8091347623368073,-0.46163032854503605,-0.10762602921760944,0.25286806877213763,0.61981614969174,0.9931569047182033
mp-15613,Cu(RhS2)2,Cubic,Fd-3m,True,0.0,-0.5609610666071408,7.0,-3.9023500884226197,-3.872006074796099,-3.8449946594906677,-3.8151868610195123,-3.779208524018352,-3.691433342340443,-3.3916408473899136,-3.0872219165339407,-2.7772456405651775,-2.4610828630542736,-2.134062445662039,-1.7943468230885244,-1.447673939984501,-1.0940202875773952,-0.7334249527954757,-0.36594240712080683,0.008339093429761135
mp-1184041,Cu(SnS2)4,Cubic,F-43m,False,0.017261969711526604,-0.44141826134614787,13.0,-5.583401264329106,-5.491567169349723,-5.3473973223098925,-5.193682072377408,-5.028288119862173,-4.76090253095302,-4.071689454241302,-3.3758589733610904,-2.6718652609471896,-1.9586793575682773,-1.2314068944852608,-0.48806641293171177,0.2656749846335309,1.0298514814232398,1.8044334252641363,2.589321727693463,3.384399568238422
mp-676076,Cu11Sb4S13,Monoclinic,Cm,False,0.06708506889880894,-0.23247921175223293,28.0,-6.452167378237572,-6.362758950311656,-6.295661586240648,-6.223547524040608,-6.131400735092685,-5.868431805557677,-4.824725332524357,-3.7573682747022334,-2.6666241435233253,-1.5500182887068163,-0.35912733739030855,0.9244488757561342,2.2365661588009473,3.5768920556700152,4.944957734844465,6.248792188149075,7.839049801994726
mp-504753,Cu12As4S13,Cubic,I-43m,True,0.0,-0.2771480045366373,29.0,-7.839597234253676,-7.716578353661985,-7.618303107123392,-7.515962296192704,-7.393933794515185,-7.101251322641781,-6.115569755924399,-5.109829011419539,-4.0802247309793955,-3.02395341356457,-1.8881976727611196,-0.3828569346071582,1.172331917889224,2.7538373647637613,4.361347266059909,5.994482562490191,7.652778198684359
mp-647164,Cu12Sb4S13,Cubic,I-43m,True,0.0,-0.29889355695042963,29.0,-8.53286025174526,-8.424585665935087,-8.340598684743384,-8.252102546891352,-8.14330100569468,-7.86295830976567,-6.800889773902767,-5.714011062687998,-4.60246869116628,-3.46368717301554,-2.2449195990980755,-0.9261426095267353,0.4226410682586206,1.8010537724063624,3.208582295436514,4.553212608895407,6.18555599052155
mp-1199685,Cu2(ReS2)3,Monoclinic,C2/c,False,0.09115807136363596,-0.6464667956818175,11.0,-7.1751368434969915,-7.155108712453719,-7.141493722223025,-7.1245504584232435,-7.098958169222416,-6.996135068207758,-6.5756593414227105,-6.148562750770289,-5.713396652829118,-5.269160676351349,-4.806680127107342,-4.322352857660972,-3.827693287701356,-3.322657664042362,-2.80728327497458,-2.2816329170695084,-1.7458201078978277
mp-15252,Cu2GeS3,Monoclinic,Cc,True,0.0,-0.5728115929166648,6.0,-3.412983410675036,-3.3900030850689404,-3.371575168784889,-3.3520809813876813,-3.3284519003942767,-3.266150025921771,-3.044801308007054,-2.8197846772265014,-2.590271710732412,-2.3273561019212154,-2.0472664004624557,-1.7499037976178506,-1.4468982337005114,-1.1382924104427197,-0.8241551435947265,-0.5045725073585619,-0.1796450981122284
mp-1147769,Cu2GeS4,Tetragonal,I-42m,False,0.06504273877976097,-0.48021008642857055,7.0,-3.3641622312045207,-3.3414532200499325,-3.3227660335210394,-3.3020774060454197,-3.2760795138129213,-3.199171961440131,-2.911130134609044,-2.6193055263265705,-2.3227143694281756,-1.9923438209010964,-1.6443487775411372,-1.278578982956473,-0.9066302871717706,-0.5285216750663082,-0.14430778002636302,0.24593412499427458,0.6421074925344818
mp-15895,Cu2SiS3,Monoclinic,Cc,True,0.009455905833334555,-0.5301286666807599,6.0,-3.127822315712507,-3.098556828111719,-3.0741847354784095,-3.0489360385195305,-3.01966956461471,-2.9518142481039806,-2.7249856747189005,-2.4945803943549096,-2.259787603483372,-2.0200193869605343,-1.7663667083026438,-1.4954089989123798,-1.218750288339523,-0.9317797052220804,-0.6130155652325868,-0.2888298937571818,0.04067878568719152
mp-1225832,Cu2SnS3,Orthorhombic,Imm2,False,0.0,-0.4098640372395839,6.0,-2.4107184780987625,-2.3799828989231946,-2.3390917433724105,-2.2957672648351233,-2.2478715554471407,-2.1609827955452863,-1.9148202139144406,-1.66485912917057,-1.4103529964781014,-1.1507615764978052,-0.8772214356893979,-0.5863451712326171,-0.2897679055932434,0.01246351377431587,0.3202781982587357,0.6335848915053219,0.9522829971360753
mp-557373,Cu2WS4,Tetragonal,I-42m,True,0.0010139838095248876,-0.5358480558928562,7.0,-3.83885809380289,-3.837233510063113,-3.8395364357705066,-3.8397373867694498,-3.8345326849719226,-3.778331262869308,-3.5109250890321375,-3.239698822244387,-2.963700824688046,-2.682239754101767,-2.3863422490028636,-2.0725362931404714,-1.7523970079285789,-1.4259205767747503,-1.093144013746187,-0.7541280089081503,-0.408952526833227
mp-504884,Cu3AsS3,Cubic,I-43m,True,0.033026537420637325,-0.23504500133080342,7.0,-1.5924371261218546,-1.5624121484587552,-1.5387057254830183,-1.5142167038676497,-1.485099352355744,-1.416377724960165,-1.1874281816076118,-0.9534925609545768,-0.7136586095433168,-0.4672520862162832,-0.2010870575884205,0.15734875791735448,0.5281126169769079,0.9053157103859277,1.2888764575642728,1.6786978933780254,2.0746627417553967
mp-3345,Cu3AsS4,Orthorhombic,Pmn2_1,True,0.0,-0.2733973148437503,8.0,-2.1312182753265807,-2.0940495788002056,-2.062668852264844,-2.0295703572562793,-1.9906691611904979,-1.8999268225798507,-1.596869136996144,-1.2887105055264065,-0.9743833303960594,-0.6531068340383568,-0.3116214301945144,0.12263661036610429,0.5697586346078083,1.0238795501792772,1.4849319588643564,1.9528276967773692,2.427453536763398
mp-607291,Cu3BiS3,Orthorhombic,P2_12_12_1,True,0.013633727589285272,-0.4246124660714286,7.0,-2.9394445395260638,-2.913985018757328,-2.882217219489449,-2.839670449088806,-2.7922631883521776,-2.7051967209136145,-2.4579551954752716,-2.2058561101225704,-1.9480390329244281,-1.683868070653027,-1.4001479620485116,-1.0918598182891497,-0.7764921151963531,-0.45413068741880736,-0.12488769023737945,0.21110881829801187,0.6042328301883355
mp-1225772,Cu3Pd13S7,Trigonal,R3m,False,0.005943217065215833,-0.31382088161684923,23.0,-6.897396282576539,-6.775004613299579,-6.677033841759854,-6.5777137743501,-6.463223352656484,-6.249293600128862,-5.652985415964203,-5.035689397462972,-4.394877347315415,-3.7288907610375155,-3.0239394417798664,-2.2746705334757245,-1.4983887815873373,-0.6949912543337362,0.1355715157044095,1.090369864165119,2.1036918687198494
mp-17691,Cu3SbS3,Orthorhombic,P2_12_12_1,True,0.020499831923075362,-0.2652555466998661,7.0,-1.8342791056796492,-1.811617117362293,-1.7951596763736415,-1.7778087386783015,-1.7556750429369716,-1.693715275177854,-1.449345905189284,-1.1988027085091364,-0.9421611499778466,-0.6788039921171949,-0.3955629208611935,-0.08744495815143782,0.2280406915799933,0.550793683656952,0.8806821706184333,1.1947004450389755,1.580500314123979
mp-5702,Cu3SbS4,Tetragonal,I-42m,True,0.0,-0.3001527701562505,8.0,-2.373747316843021,-2.3434709189229075,-2.3188684836351516,-2.2924373818071366,-2.26004915077245,-2.175597981058784,-1.8566497780995812,-1.5314128798632511,-1.1998074068733935,-0.8611095852425956,-0.5020774480311321,-0.11766656952705823,0.2746479361260068,0.6747894411048936,1.0826402803125887,1.4752035475718728,1.940135099005012
mp-27124,Cu4(BiS2)5,Monoclinic,C2/m,True,0.008786194649121448,-0.5524668807894738,19.0,-10.272326592215286,-10.155383277420368,-9.987809545212226,-9.765433850352371,-9.527627002180335,-9.160617609402419,-8.264041342497418,-7.356507115142009,-6.43577644952315,-5.500311758001562,-4.532063897674966,-3.524050802831688,-2.4994414134297678,-1.4582862234252936,-0.4007287854700152,0.6730198270079697,2.0152835248253496
mp-559551,Cu4Bi4S9,Orthorhombic,Pnma,True,0.00946867789215844,-0.5433756938235289,17.0,-9.067106131781234,-8.96998455738273,-8.833409296968151,-8.652463329773596,-8.457779927491208,-8.146922411546715,-7.35953332813601,-6.5623353353289815,-5.753288709448675,-4.930976175141463,-4.077425936191553,-3.1857023367302872,-2.278993266842292,-1.3573515694614393,-0.4209134051140424,0.5301267524829179,1.6975975939617634