,pretty_formula,crystal_system,spacegroup,experimentally_observed,"energy_above_hull, eV/atom",Ef,total_atoms,Gf_400,Gf_500,Gf_600,Gf_700,Gf_800,Gf_900,Gf_1000,Gf_1100,Gf_1200,Gf_1300,Gf_1400,Gf_1500,Gf_1600,Gf_1700,Gf_1800,Gf_1900,Gf_2000
mp-1026034,Mo(WS3)2,Trigonal,P3m1,False,0.004752774444451546,-0.9057068429861109,9.0,-8.437771580617405,-8.473278810404986,-8.511795407660632,-8.546459916482542,-8.573480928253677,-8.525148603047597,-8.161566217891448,-7.794083248610406,-7.421478825974117,-7.042921085040179,-6.657863748379954,-6.265929292630549,-5.866881900687396,-5.460564606337689,-5.046887598020005,-4.625805866707797,-4.197303182544587
mp-1025922,Mo2WS6,Trigonal,P3m1,False,0.004843956666668703,-0.9331365063194426,9.0,-8.691853644826523,-8.729152210999993,-8.769362720171397,-8.805609206411475,-8.834103370394793,-8.787145736500232,-8.424847873199212,-8.058562365608505,-7.68706834449776,-7.309531872063511,-6.9253973430023095,-6.534277906076474,-6.135923234153967,-5.73015977813345,-5.316878034273376,-4.8960112285059925,-4.467521365933617
mp-1027645,Mo3WS8,Trigonal,P3m1,False,0.0034632383333317307,-0.9413974360416688,12.0,-11.646532481057616,-11.685825539722327,-11.728968714227578,-11.766789213325197,-11.794237007678461,-11.721049584561019,-11.227378465749487,-10.72836146783012,-10.222370765162427,-9.70829374972144,-9.185386505144308,-8.65313012048917,-8.111185989570835,-7.559317185958001,-6.997371140601892,-6.425251566398444,-5.842900548470347
mp-555066,Mo6PbS8,Trigonal,R-3,True,0.03296660599999868,-0.9286134686666666,15.0,-14.15365071568053,-14.162700183131072,-14.180941732600502,-14.18651864071758,-14.180247717341963,-14.070774107568685,-13.537609388049814,-12.995521556833264,-12.442681045114028,-11.877855148517195,-11.300224610548641,-10.709220338574454,-10.104468305313475,-9.48570240921206,-8.852740489511103,-8.205460891792384,-7.543780599046304
mp-1029246,MoW3S8,Trigonal,P3m1,False,0.003585132499999588,-0.8999942735416653,12.0,-11.120613895941156,-11.15266167015956,-11.188754409158756,-11.219748341745499,-11.240587219999872,-11.160987802584849,-10.661085028388523,-10.156010495413945,-9.644136378020628,-9.124354213905736,-8.595938742456013,-8.058389708479206,-7.511397525845034,-6.954758433899286,-6.388359247953424,-5.8121472109857955,-5.2261079382014834
mp-1027335,MoWS4,Trigonal,P3m1,False,0.0033953666666661775,-0.9208246735416665,6.0,-5.6918290858650575,-5.709481688864677,-5.729108062019631,-5.746129064719561,-5.758018127650314,-5.71963881229604,-5.471062733822917,-5.219857245878272,-4.965208435641863,-4.706561035531735,-4.443547751303862,-4.175913791424717,-3.903497107815433,-3.62618752870463,-3.3439186156579783,-3.056653107644049,-2.7643729297447894
mp-1238825,Na(CrS2)2,Orthorhombic,Pmmn,False,0.0,-1.0804847587684674,7.0,-7.461297151683455,-7.403538004438814,-7.348555928749445,-7.290579511662499,-7.226429446753951,-7.110562342319714,-6.782760839055516,-6.450358810649203,-6.088180128429269,-5.658629268137162,-5.2229696926670455,-4.7807878922716505,-4.3317680208570675,-3.8756595913639416,-3.4122591659757706,-2.9413994200404954,-2.4629281576912625
mp-29069,Na(CuS)4,Trigonal,P-3m1,True,0.0,-0.5928312490421442,9.0,-5.034069432192364,-4.927354330385303,-4.827433640353709,-4.725732686524331,-4.617629879423008,-4.4567927953019755,-4.082567080468578,-3.702047663409026,-3.289909409981327,-2.8084069453710754,-2.30171389679802,-1.7631025310220885,-1.2158536397380075,-0.6600455264640193,-0.09579773860641438,0.47675128465697014,1.057439507130896
mp-1221421,Na(Nb3S4)2,Trigonal,P-3,False,0.0015055244146280344,-1.3576949007586203,15.0,-19.9764730542876,-19.823394169428507,-19.67899018775222,-19.530142531713267,-19.369768337646917,-19.106485803454355,-18.41981790652351,-17.724544045638147,-16.994657836944306,-16.192084579901863,-15.377807370713999,-14.55129131895442,-13.712200745271662,-12.860317223916628,-11.995518707101148,-11.117751944822185,-10.226981595874683
mp-1221395,Na(NbS2)2,Trigonal,P3m1,False,0.041698234285706626,-1.4098732244827576,7.0,-9.701809396027123,-9.627400772424489,-9.555850061958717,-9.481524733368419,-9.401382289059956,-9.270014073298556,-8.927343681332477,-8.580854232846349,-8.205512626582252,-7.763874657139489,-7.317344741964742,-6.86565654444647,-6.408641391626475,-5.946189750997927,-5.478241212157915,-5.004767332145825,-4.5257547967862735
mp-1221427,Na(V3S4)2,Trigonal,P-3,False,0.03967021287498351,-1.2782419807586327,15.0,-18.737370950310563,-18.570806182388704,-18.41166016384336,-18.24693868879306,-18.06960864223865,-17.788238473415724,-17.08227031813061,-16.36636542208631,-15.614386811181655,-14.788129194629327,-13.948451296968537,-13.094687637525777,-12.226396821035227,-11.343285798749363,-10.445164118464845,-9.531897688597034,-8.603382763525662
mp-676586,Na(VS2)2,Monoclinic,Pm,False,0.02845461904761759,-1.2558098487684728,7.0,-8.640660390159457,-8.570022486900417,-8.501823778842812,-8.430473191946579,-8.35294481150661,-8.22381339889961,-7.882975602179959,-7.537875156672033,-7.163435431035515,-6.72216868978731,-6.2754378931527715,-5.822933174437958,-5.364450622046547,-4.899855829138909,-4.429065583840398,-3.9520244959965467,-3.4686964499602198
mp-1221460,Na2(NbS2)3,Trigonal,R32,False,0.0,-1.479845682978057,11.0,-15.944805663992675,-15.808453531283268,-15.676893562032442,-15.541136790425679,-15.39634751412056,-15.174264203739094,-14.634684768597747,-14.088778815860472,-13.48687880797727,-12.754360494340798,-12.014211693029036,-11.266018316926122,-10.509518862002444,-9.744545203407895,-8.971006112046936,-8.18885970500721,-7.398088909612213
mp-541895,Na2(ReS2)3,Monoclinic,C2/c,True,0.0,-0.9929270879780538,11.0,-10.645296534137465,-10.522458959727913,-10.40410261961698,-10.281263422322924,-10.149093228336948,-9.939308743239845,-9.4116767834321,-8.877351409619651,-8.286646428502909,-7.564931370891337,-6.835203382737697,-6.097048376926148,-5.350229723759867,-4.59459795413834,-3.8300991504652298,-3.05671319486937,-2.274478981923071
mp-1221434,Na2(TaS2)3,Trigonal,R32,False,0.0,-1.468100066796238,11.0,-15.778348119190179,-15.632085838115898,-15.490323447089832,-15.344159040462241,-15.188825320305902,-14.956107396616831,-14.40584359950228,-13.849234629042204,-13.236640931311001,-12.493456911450927,-11.742698371164353,-10.983991644126224,-10.21715606788851,-9.442082594141507,-8.658720414580468,-7.867049411334244,-7.067083604642313
mp-29411,Na2B2S5,Orthorhombic,Pnma,True,0.0,-0.970077269287994,9.0,-8.612826689629802,-8.544326993360041,-8.482233047415779,-8.41834950979893,-8.348239275670256,-8.214769278695059,-7.817597130771191,-7.4159129047078185,-6.960190813411703,-6.375887534200899,-5.786056831103997,-5.190320662542822,-4.588442693197553,-3.980279948667576,-3.3657649006479353,-2.7448660137090144,-2.1175965962645336
mp-17625,Na2Cu4S3,Monoclinic,C2/m,True,0.017891746967591438,-0.6616953661398459,9.0,-5.565360553036486,-5.434689745034419,-5.312354521010751,-5.189104452684559,-5.0600132400049045,-4.8895138631728265,-4.556627565738765,-4.216366569032376,-3.8193253119022863,-3.2909490709306795,-2.7372475100269487,-2.151515179207486,-1.5570499712708123,-0.9539462544084447,-0.3423365314083249,0.27763039424636204,0.905782640270326
mp-18568,Na2Ge2S5,Orthorhombic,Cmcm,True,0.0,-0.9517786072509532,9.0,-8.437101509359282,-8.358478150451266,-8.283605206842582,-8.205365224289718,-8.119893207607777,-7.970367019622046,-7.556616319698887,-7.137891293618395,-6.6646868828980015,-6.005868584879593,-5.334786064509,-4.657727601397882,-3.974519046058397,-3.2850733913387415,-2.5893624932942068,-1.8873983465775837,-1.1792253525185892
mp-4068,Na2GeS3,Monoclinic,P2_1/c,True,0.0,-1.084004064209769,6.0,-6.337640900564342,-6.261452678279175,-6.1878849588020834,-6.112096384597807,-6.031490945506455,-5.911829233638704,-5.6329258293884905,-5.350281962135115,-5.014831659152655,-4.524038515894858,-4.026302922213678,-3.5247141296910893,-3.0191510292542887,-2.509550606721163,-1.9958904719550432,-1.4781737847153043,-0.9564265183815444
mp-505121,Na2Hg3S4,Orthorhombic,Pbca,True,0.0,-0.6981867725287378,9.0,-5.631375832673349,-5.42533793172127,-5.224338729221342,-4.818688350346546,-4.31964850354468,-3.7702913357266272,-3.009963529630266,-2.2457683051860755,-1.42824931614655,-0.4829238710159345,0.4671319829207228,1.4222636396797768,2.382695515629944,3.348560739081755,4.31992217440277,5.296807211300468,6.279199950284806
mp-28858,Na2HgS2,Orthorhombic,Pbca,True,0.0,-0.9519581598017268,5.0,-4.4462143939713545,-4.338307864208444,-4.233074627474134,-4.058907884941403,-3.8520101893362675,-3.618967803893063,-3.2794292904720947,-2.9369305710358535,-2.5425682721889906,-2.0222226258099907,-1.499219724165922,-0.9733712516195272,-0.44455702360938965,0.08729335010961137,0.6222119152124232,1.1602115850242374,1.7012820294287003
mp-28079,Na2Mn2S3,Monoclinic,C2/c,True,0.0,-1.21993040570043,7.0,-8.325657071605898,-8.235627556335409,-8.148189591554736,-8.056951978852162,-7.958505324225275,-7.818166991527846,-7.514557782827839,-7.200285966796777,-6.830151576860887,-6.330052377873914,-5.822055584608554,-5.302360114119631,-4.761407751033035,-4.209821719228939,-3.650875287114607,-3.084718277781141,-2.511517197750674
mp-10223,Na2PdS2,Orthorhombic,Cmc2_1,True,0.0,-0.9918243661250002,5.0,-4.71824625509726,-4.6289116264983345,-4.542245108775342,-4.45385138675157,-4.361409926662908,-4.241779054758668,-4.01466330014795,-3.7836410784451076,-3.499846327753989,-3.089187263577477,-2.675017961807036,-2.2571677261244734,-1.8355319184263763,-1.4100422213286805,-0.9806614070037831,-0.5399028615512691,-0.09281707677065398
mp-10246,Na2PtS2,Orthorhombic,Cmc2_1,True,0.0,-1.0282518371249978,5.0,-4.89748482601755,-4.807522925868825,-4.720292358858561,-4.631384336213112,-4.538473142015704,-4.418408811071382,-4.19089172676711,-3.959497195425647,-3.675356045859237,-3.2643723478486315,-2.8499001772852974,-2.431767801420504,-2.0098726550119093,-1.584159894272382,-1.1546099106933756,-0.7212222281161011,-0.2840175409622443
mp-18104,Na2Si2S5,Orthorhombic,Cmcm,True,0.0,-1.0552704340625008,9.0,-9.389212594572115,-9.317721841425488,-9.250663474869068,-9.180617402943634,-9.103573530189639,-8.962643387878236,-8.557635906765126,-8.147836511268537,-7.683775381544024,-7.0909547978531045,-6.49244925283503,-5.887903506383369,-5.277091587483614,-4.650619342795441,-3.965357628218676,-3.273890340774358,-2.5762577360700476
mp-1190141,Na2TeS3,Monoclinic,P2_1/c,True,0.0,-0.9108006049042139,6.0,-5.27952434221441,-5.197925274964186,-5.1186223077651345,-5.036761645915588,-4.929856104461656,-4.776638240068088,-4.463242786520537,-4.145495375955212,-3.7744937916704426,-3.2761122628972448,-2.715582811347444,-2.166427916565917,-1.6136728652926813,-1.0572266597212234,-0.49704462645841296,0.0668928762081169,0.6345816399399542
mp-1094107,Na2Zn2S3,Monoclinic,C2/c,False,0.0,-1.1149355815624997,7.0,-7.482889614377597,-7.367352924774218,-7.255595535051757,-7.13957210366743,-6.996892047833012,-6.81322822707517,-6.4683850471308375,-6.117928749413414,-5.675436379319894,-4.940607847115233,-4.202089628597152,-3.4596086503556354,-2.7129946847866986,-1.9621459726125072,-1.2070150588118072,-0.4475817918682665,0.3161407134149208
mp-1024069,Na2Zn3S4,Orthorhombic,Ibam,False,0.07543326285714791,-1.0055649499404717,9.0,-8.699484901971992,-8.570546168048825,-8.446531088788625,-8.316654282290726,-8.147993386940222,-7.9248860313290885,-7.487139073351965,-7.042225738639701,-6.484825038772428,-5.551455992364772,-4.613362755734279,-3.670190606989781,-2.721718239054173,-1.7678125236169233,-0.8084105963104697,0.1565149325726729,1.1269481635424476
mp-1024067,Na2ZnS2,Monoclinic,P2_1/c,False,0.002840372800000601,-1.1680558471250009,5.0,-5.589185157342287,-5.497456808894904,-5.408363405546389,-5.316599646111845,-5.2103067266297165,-5.0764927375613755,-4.83495963248604,-4.589366668599662,-4.272188925116105,-3.7463072039506464,-3.2177703003811864,-2.6863867894788624,-2.152037523112801,-1.6146521110378735,-1.0741985075791334,-0.5306637994113981,0.015941683348991376
mp-1210267,Na2ZrS3,Monoclinic,C2/m,False,0.0,-1.6848166517097685,6.0,-9.871236489273526,-9.77662844874454,-9.684295779656063,-9.58938572373696,-9.48928568793882,-9.34974071791431,-9.050552956890972,-8.747221561387043,-8.38837450074013,-7.901190870222607,-7.410254922463022,-6.915338294906441,-6.416287749133531,-5.913005032324042,-5.405431479272648,-4.89352879251739,-4.3772845975081385
mp-27321,Na3(CuS)4,Orthorhombic,Pbam,True,0.0,-0.7925066949216298,11.0,-8.226557878887437,-8.056027084580343,-7.894311877061888,-7.730676905069023,-7.559412755319819,-7.333592820963094,-6.892212814082596,-6.442147373712494,-5.909599823058368,-5.182993017280609,-4.430025351230775,-3.643910762874633,-2.8478960655376007,-2.0420442583784784,-1.2264724348389144,-0.40132216021093825,0.43323293496383997
mp-9634,Na3AgS2,Orthorhombic,Ibam,True,0.0,-1.0242046592708327,6.0,-5.848275303076409,-5.7370143592272065,-5.629612452673309,-5.520557655324438,-5.406954428596606,-5.265328768549284,-5.015170852819504,-4.75991578651855,-4.426429607077512,-3.897383455164422,-3.360870418978127,-2.819957466844139,-2.274569610848385,-1.7246847758148078,-1.1703173648906784,-0.6114995578902906,-0.04828583003291875
mp-560538,Na3AlS3,Monoclinic,P2_1/c,True,0.0,-1.3968371604910712,7.0,-9.463562417463255,-9.341721376160796,-9.22311447227877,-9.10175367888288,-8.974439997368968,-8.806564378158669,-8.469815975913606,-8.12367355731018,-7.6989334246246965,-7.0845352663259735,-6.465570601482703,-5.841830615377937,-5.2132000112259504,-4.579624705553435,-3.9410966276994053,-3.297636046938317,-2.6492861345588334
mp-5830,Na3AsS3,Cubic,P2_13,True,0.0,-1.010346805848215,7.0,-6.772878975604316,-6.654810959088748,-6.540163637489594,-6.423001841829757,-6.300188759337072,-6.137196182014764,-5.813683415325107,-5.485075746128979,-5.078104596151306,-4.481650577320508,-3.880785516525153,-3.2077792226685418,-2.5249478649959336,-1.8380216788400574,-1.1469454359506646,-0.4516917297976857,0.2477340980446883
mp-15567,Na3AuS2,Trigonal,R-3c,True,0.0,-1.0606830448563223,6.0,-6.057042290931653,-5.943290495198526,-5.833434011829365,-5.721976459191894,-5.606039918021189,-5.462177331570584,-5.209904788240449,-4.952669830308453,-4.617323985178236,-4.092807761813412,-3.557964105903631,-3.015374936284843,-2.468486019564411,-1.9172628433998753,-1.3617104830637068,-0.8018517904953999,-0.23773398590049766
mp-29000,Na3B5S9,Tetragonal,I4_1/acd,True,0.0,-0.974843116615956,17.0,-16.484652325910734,-16.403871534127195,-16.33894098958146,-16.27294906094839,-16.19672801458252,-16.00675810200233,-15.342010262418182,-14.668775998798125,-13.912256091170448,-12.960296880287656,-11.997265793647482,-11.022456122886076,-10.035430324082753,-9.035929274580894,-8.023836245856696,-6.999100077590779,-5.961756617680095
mp-29976,Na3BS3,Monoclinic,C2/c,True,0.0,-1.1548220901149417,7.0,-7.7854112208004835,-7.671707844022768,-7.5629632250728,-7.452716724693126,-7.337542365992809,-7.182748184950821,-6.867887771115042,-6.548322152653294,-6.150739221208103,-5.563982277208696,-4.97306614386431,-4.37771774776493,-3.777767897737102,-3.1731179437945958,-2.563724576638286,-1.949570754043435,-1.330672700104854
mp-561456,Na3FeS3,Monoclinic,P2_1/c,True,0.011588280714286192,-1.0609925238054185,7.0,-7.147274705184204,-7.033637448084113,-6.922711967415697,-6.808336115915083,-6.687113973176789,-6.524203292752471,-6.198815642114036,-5.866904887694325,-5.452756475159804,-4.848750005919124,-4.239923104653254,-3.6260223901323165,-3.006891108349251,-2.382440973623156,-1.752632822377052,-1.1087995631557384,-0.45922709927877925
mp-18165,Na3GaS3,Monoclinic,P2_1/c,True,0.0,-1.238709873805418,7.0,-8.333002884956269,-8.189972908319614,-8.050171886950723,-7.907825298605152,-7.759893754980862,-7.571918488926802,-7.223605445279245,-6.870421368120395,-6.4391287720911805,-5.818626924869616,-5.193973143316811,-4.564928556230333,-3.9313509196306096,-3.2931643850031307,-2.650342225937301,-2.002885019527465,-1.3508224634653345
mp-29375,Na3InS3,Monoclinic,C2/c,True,0.004716953928566525,-1.1788889676339278,7.0,-7.935823235966439,-7.806896649729618,-7.678310486864406,-7.546718581865755,-7.409147877985753,-7.231196611752676,-6.892618403807326,-6.54890798185631,-6.126849625581745,-5.515365404133389,-4.899529217260865,-4.279114630928165,-3.6539949476136915,-3.0241026102472084,-2.3894212567234643,-1.7499618284421175,-1.1057581688170277
mp-1196173,Na3NbS4,Orthorhombic,Fdd2,True,0.0,-1.3414351912984914,8.0,-10.499840855497277,-10.392374634925414,-10.287802670295749,-10.179798681090896,-10.065003236100111,-9.897844287575705,-9.518145086652526,-9.13331695621892,-8.669943228696708,-8.016799016035652,-7.358845180751388,-6.695772748238358,-6.027386728478913,-5.353565791064373,-4.674248298609493,-3.9894063347802344,-3.2990396375881232
mp-1193673,Na3SbS3,Cubic,P2_13,True,0.0,-1.0324221537053566,7.0,-6.9227839394735495,-6.803331254027443,-6.687185256139097,-6.5684138861230075,-6.443836801124621,-6.278858425162497,-5.931178173560543,-5.577215270061021,-5.144688854687039,-4.522536543046348,-3.895847781346575,-3.264411682009703,-2.6281108753889395,-1.986887132288846,-1.340735491340041,-0.7125372883039898,-0.014528781477702424
mp-10167,Na3SbS4,Cubic,I-43m,True,0.0,-0.9225810689062506,8.0,-7.077285680546822,-6.951661932735043,-6.828814287784676,-6.702406100872997,-6.569017827818336,-6.3829913971387455,-5.962175659803243,-5.534962401984625,-5.028915419389158,-4.3328657912154025,-3.6318293107972526,-2.9255436429031434,-2.2138573275978324,-1.4966884188328926,-0.7740177728749522,-0.06871792423724798,0.7069789177000878
mp-1202226,Na3TaS4,Orthorhombic,Fdd2,True,0.0,-1.3835113683089082,8.0,-10.83315615415244,-10.724667668668786,-10.618976014657203,-10.509783931655237,-10.393754789923875,-10.225332088173435,-9.844352551135685,-9.45823786600431,-8.993580693075929,-8.339162362883503,-7.679953065817465,-7.015657300869194,-6.3461070252149,-5.6712006006260385,-4.990889863314299,-4.305154151959375,-3.6140035688781147
mp-29143,Na3VS4,Tetragonal,P-42_1c,True,0.0,-1.2839822642672396,8.0,-9.987054303741282,-9.866020831448179,-9.74767225612956,-9.625703025878703,-9.49676200092913,-9.315268842088885,-8.921033326895888,-8.521447086058346,-8.043071686956884,-7.374660476500075,-6.701153588592877,-6.022220283588535,-5.337647952150348,-4.647302826703225,-3.9511118691260627,-3.2490336894878844,-2.54105662506435
mp-28789,Na4Cu2S3,Tetragonal,I4_1/a,True,0.0,-0.9753061731130264,9.0,-8.413027109407551,-8.271065062596852,-8.135506693250587,-7.997878895987763,-7.853727983080602,-7.66778542672372,-7.319261100824599,-6.96328952551583,-6.502227589767811,-5.78789047222004,-5.058459676964329,-4.310417814337324,-3.555311727751633,-2.793130069484368,-2.0239141364365665,-1.247729817648743,-0.46467437240778864
mp-28773,Na4Ga2S5,Monoclinic,P2_1/c,True,0.0,-1.231674915501567,11.0,-13.04202817250465,-12.821140192859033,-12.605219533432116,-12.385282410562041,-12.156577072779593,-11.861842664386616,-11.300691573634136,-10.732305015708075,-10.058834906859538,-9.132018088878967,-8.19851808073049,-7.257966916456979,-6.310148176757011,-5.354949185814014,-4.392333127135437,-3.4223068300439863,-2.444922144493635
mp-29626,Na4Sn3S8,Monoclinic,C2/c,True,0.0,-0.8843302168333328,15.0,-12.768986514231301,-12.559174546796255,-12.31160954037684,-12.054355484666017,-11.783743518175559,-11.409060336500588,-10.610230015645389,-9.802293134888131,-8.886924297056694,-7.715550796739753,-6.534646739105593,-5.343723873101922,-4.142502486626089,-2.9308449955105687,-1.708707084257199,-0.4761194537361284,0.7668475213433368
mp-29628,Na4SnS4,Tetragonal,P-42_1c,True,0.0,-1.141544546805556,9.0,-9.876774986828284,-9.718502965880223,-9.5496340523598,-9.376102561728644,-9.194916173310848,-8.960294880832874,-8.511946044858163,-8.057219555784107,-7.498504431927641,-6.687692029572455,-5.871541870118751,-5.049744834618828,-4.222116927494774,-3.388560259074188,-2.5490378757528376,-1.703552444308702,-0.8521374835509015