,pretty_formula,crystal_system,spacegroup,experimentally_observed,"energy_above_hull, eV/atom",Ef,total_atoms,Gf_400,Gf_500,Gf_600,Gf_700,Gf_800,Gf_900,Gf_1000,Gf_1100,Gf_1200,Gf_1300,Gf_1400,Gf_1500,Gf_1600,Gf_1700,Gf_1800,Gf_1900,Gf_2000
mp-11703,KSbS2,Monoclinic,C2/c,True,0.0,-0.8523867423437501,4.0,-3.3144193177584693,-3.270341293216929,-3.2280420544171284,-3.184123709584591,-3.1367101395278967,-3.062848973272615,-2.8604235418326125,-2.607857338439387,-2.319996675103712,-2.0293925528955654,-1.735870586261858,-1.4393296640722717,-1.139720485337783,-0.83702176921431,-0.5312472635221646,-0.2452819062958067,0.1086455895972609
mp-15783,KSmS2,Trigonal,R-3m,False,0.0,-2.1040121418124995,4.0,-8.197579104857558,-8.120136478013293,-8.042443305926676,-7.961077858920969,-7.874206511456613,-7.7589556612797015,-7.535179930278334,-7.260320275538491,-6.947977219569988,-6.628877645704294,-6.301926818074801,-5.967599880927674,-5.628900857624824,-5.285894491056428,-4.93866189702746,-4.587289132917354,-4.231867791834066
mp-541379,KSnS4,Monoclinic,P2_1/c,True,0.0,-0.8993866591249997,6.0,-5.287938628117862,-5.226800771746116,-5.151996948783056,-5.0726713953090075,-4.987440724887981,-4.8514027323046385,-4.504773096569287,-4.108988684725109,-3.677646114086082,-3.243059475001539,-2.804888420421321,-2.3629113245889535,-1.9169951594805106,-1.4670629191016715,-1.013083403656239,-0.5550525178898482,-0.09298638909204193
mp-31308,KTaS5,Monoclinic,P2_1/c,True,0.0,-1.1647104620833326,7.0,-8.04669449602188,-7.98073755605855,-7.914988376358582,-7.844874694096086,-7.767885700540989,-7.627983108409571,-7.225486429413779,-6.773766745097608,-6.286233199111672,-5.795067434632773,-5.2998285045431555,-4.800227788974805,-4.2960971331848,-3.7873244135899724,-3.2738518108637393,-2.7556446634623075,-2.232697430439263
mp-999129,KTbS2,Trigonal,R-3m,True,0.0,-2.1710495648437504,4.0,-8.440706165209372,-8.35843219508212,-8.277493418428378,-8.194457741266076,-8.107441789390059,-7.9935253211724255,-7.772518391988345,-7.501821538133001,-7.195253968958725,-6.885265115343235,-6.571581094402253,-6.2539992248132,-5.93114564736557,-5.598120602695305,-5.259092888630485,-4.916138509174376,-4.5693386931296
mp-1018051,KTiS2,Trigonal,R-3m,True,0.05575627750000045,-1.5779446938958328,4.0,-6.158451968247244,-6.099572561263873,-6.042173448028663,-5.982914776877005,-5.920028217392936,-5.830661932363748,-5.634637377900475,-5.389310523785371,-5.1071874218851505,-4.8199132329837315,-4.529817587696344,-4.236728897616409,-3.9405284209091764,-3.6411275087459014,-3.3384683952401017,-3.032502401801896,-2.718494464545916
mp-1211499,KTlS2,Monoclinic,C2/c,False,0.0015820440277782843,-0.8643047720208346,4.0,-3.3037982957722556,-3.244617110946959,-3.1840204329599415,-3.115424382577543,-3.0430936915178073,-2.944266692024423,-2.73887677470601,-2.484432264633212,-2.1948508320590197,-1.9026710408870082,-1.6077071048282257,-1.309847548447019,-1.0090347793101007,-0.7052433708512567,-0.3459493707301471,0.06070498913888578,0.46986364448656737
mp-1103728,KV5S8,Monoclinic,C2/m,True,0.06173917464285239,-1.2836090855178566,14.0,-17.675570338127496,-17.544374952339226,-17.418785531188156,-17.28722297369994,-17.143393962150107,-16.896292554712083,-16.225607368010778,-15.499924375052817,-14.731716628128797,-13.952526767896114,-13.16145320793911,-12.357867923425633,-11.541354799718789,-10.711634658833972,-9.868531749147095,-9.011920780321752,-8.141710865314089
mp-1006888,KYS2,Trigonal,R-3m,True,0.0,-2.1730211298437485,4.0,-8.554828268517545,-8.499743668089186,-8.446161126450185,-8.390724209047406,-8.331616909660347,-8.245971844618314,-8.053640526517794,-7.81206287601424,-7.535102668972914,-7.2552539027844585,-6.97229140679966,-6.686071576236338,-6.396508835036803,-6.103550809440977,-5.805714641579167,-5.496422140502055,-5.18364902638398
mp-1002123,KZrS2,Trigonal,R-3m,True,0.0,-1.7386569630624988,4.0,-6.803994624517548,-6.746050570252365,-6.689864573118252,-6.632037704910205,-6.570717684339067,-6.482995670512806,-6.28868275523712,-6.045172219793461,-5.763983434180894,-5.478992994121412,-5.191283704298752,-4.900707814208602,-4.607163164904739,-4.310580799738554,-4.010919535712098,-3.708146240693482,-3.402246791876271
mp-973441,La(ErS2)3,Monoclinic,P2_1/m,True,0.0,-2.4203908949999997,10.0,-23.874273851593777,-23.751444925379666,-23.630895787274888,-23.504758230100595,-23.368939458080664,-23.15531853237828,-22.623724265577586,-22.085295455016038,-21.536294898391702,-20.972084655564576,-20.398246278327946,-19.814382406796636,-19.220221578931834,-18.615567046994475,-17.998567913395366,-17.338579084240525,-16.668868874838545
mp-1188862,La(HoS2)3,Monoclinic,P2_1/m,True,0.0,-2.435923489187496,10.0,-24.009721744278547,-23.882651657324125,-23.75823758276259,-23.628685936413518,-23.490000310540356,-23.273991361891095,-22.74030756413711,-22.199863845620648,-21.64867426071182,-21.081830360901442,-20.50462453386402,-19.916370255595616,-19.316494462772226,-18.704495697078023,-18.05902158401031,-17.392176679879775,-16.714758449603792
mp-1106254,La(LuS2)3,Monoclinic,P2_1/m,True,0.0,-2.4176524016874965,10.0,-24.117184083325398,-24.063707463120494,-24.01366106891682,-23.95904299399675,-23.895632961628564,-23.755191879894653,-23.297427299006785,-22.833372300388007,-22.359190184405207,-21.870140404295583,-21.371708123812834,-20.863396485740605,-20.344846967875263,-19.81576954372978,-19.2759425845132,-18.725182726134108,-18.142653500774195
mp-1103974,La(Mo3S4)2,Trigonal,R-3,True,0.0,-1.098801223833334,15.0,-16.654821485048796,-16.65101656664572,-16.656253447834224,-16.657000015286062,-16.646148531003718,-16.532064303838254,-15.994070280084673,-15.446776920349848,-14.885881732576454,-14.306371113804305,-13.713606042809005,-13.107045410581048,-12.486348355616325,-11.851278832846653,-11.201685774428952,-10.537475509569383,-9.858590932021663
mp-1106294,La(TmS2)3,Monoclinic,P2_1/m,True,0.0,-2.432671356187498,10.0,-23.98356863038945,-23.858693800033095,-23.73704398243238,-23.610642145202497,-23.475187170030107,-23.26227206325124,-22.73159504720285,-22.194279372764377,-21.646631367716303,-21.084075277750607,-20.512285933408585,-19.930971690719435,-19.339985459308334,-18.739257972391812,-18.128794579465723,-17.484812393196663,-16.825499664634563
mp-1211293,La(YS2)3,Monoclinic,P2_1/m,True,0.0,-2.438558225687501,10.0,-24.339761162491037,-24.289380529219052,-24.241876668043552,-24.189145065624107,-24.126943680187807,-23.987095605649035,-23.52941099884235,-23.06505975002119,-22.590357514840818,-22.100740976159635,-21.60188185522732,-21.093482289489884,-20.575388969989298,-20.04752330206729,-19.5054847690229,-18.929588529851173,-18.343790571519534
mp-36395,La2CdS4,Tetragonal,I-42d,False,0.09026565214285487,-1.937555057142857,7.0,-13.447051166644304,-13.39200146118576,-13.338261241647412,-13.270436874005789,-13.196086472161259,-13.06962104146627,-12.73082944119976,-12.32734403704314,-11.874704873823376,-11.404304352866209,-10.928191033194732,-10.446220877000318,-9.958346473697166,-9.46456193383177,-8.964912562915606,-8.459459051013926,-7.948286544852003
mp-1223418,La2CeS4,Tetragonal,I-42d,False,0.03955752857142869,-2.4106369700000068,7.0,-16.704777742614397,-16.63583310568547,-16.568537903891645,-16.49703366411528,-16.41854943356245,-16.287338680144558,-15.943036871421597,-15.588389603110757,-15.218674703114088,-14.829736041897602,-14.433734112981991,-14.030623339459284,-13.62043818875582,-13.203247394416465,-12.779159484215228,-12.348294224757762,-11.910785475004396
mp-31273,La2CuS4,Monoclinic,P2_1/c,True,0.0,-1.8872457930357132,7.0,-13.089540933725255,-13.033822084380228,-12.980538284514497,-12.923863190356965,-12.861071452057155,-12.746453849025666,-12.419700779640765,-12.08810984252164,-11.74597840228589,-11.385244022719744,-11.013681023327191,-10.629551336139489,-10.238682038833254,-9.841122172773247,-9.43696057355333,-9.026301461321161,-8.609264185009597
mp-622086,La2GeS5,Monoclinic,P2_1/c,True,0.0,-1.8334557503125062,8.0,-14.6095960120314,-14.563643750070867,-14.519810494013665,-14.471867387812534,-14.416839515984563,-14.297943761703973,-13.915005448966667,-13.527269864489575,-13.128867627837593,-12.683345577135542,-12.227824496130328,-11.76543998709363,-11.296141642067195,-10.819933020521589,-10.336867010645499,-9.847022448449803,-9.350498051061955
mp-1197947,La2HfS5,Orthorhombic,Pnma,True,0.0,-2.2748515233203115,8.0,-18.14793052386197,-18.10290155594898,-18.059420520715502,-18.011241979225744,-17.955397234579998,-17.835116643549412,-17.45025455018483,-17.060098734855035,-16.65882231077679,-16.238308126853788,-15.810555963568193,-15.375393136929556,-14.932755765382698,-14.482636007662315,-14.025076387651767,-13.560146413487132,-13.087939620143196
mp-1232227,La2MgS4,Orthorhombic,Pnma,False,0.05215580000000042,-2.203430240714286,7.0,-15.344690248734127,-15.299159995074337,-15.255815011135336,-15.20878127734149,-15.1552888773294,-15.049579878274596,-14.723908289479322,-14.39063363628713,-14.046359341252089,-13.683154594838147,-13.28191181780856,-12.808990573950807,-12.330165082984319,-11.84543049188612,-11.354828996876083,-10.858425433741601,-10.356300803485802
mp-36538,La2PbS4,Tetragonal,I-42d,False,0.01954925142857089,-1.9851984828571436,7.0,-13.792725669068133,-13.740486433776102,-13.690146413377683,-13.627654151389944,-13.558494900646789,-13.437179163831836,-13.103536221014833,-12.764981823895742,-12.415921125867621,-12.048405698075358,-11.674549394665638,-11.294254817203829,-10.90750979374227,-10.514337454882376,-10.114801761885222,-9.708984133426732,-9.296981116968023
mp-558724,La2SiS5,Monoclinic,P2_1/c,True,0.0,-1.908254534882813,8.0,-15.16305235525741,-15.106847332354848,-15.053102301001054,-14.995437086290913,-14.930804222604193,-14.802387427338044,-14.410001660183038,-14.012909827175175,-13.605260167198411,-13.178917909837375,-12.7458662526857,-12.305919038156002,-11.85899994752671,-11.400458967174124,-10.90879848520919,-10.41038328882692,-9.905310022293694
mp-37386,La2SmS4,Tetragonal,I-42d,False,0.035033712857143406,-2.3953712107142855,7.0,-16.59895817163556,-16.528592112171747,-16.458521909566624,-16.38288909070254,-16.298960014284777,-16.16103375116819,-15.808817282619579,-15.449628935868793,-15.077529769371854,-14.682738945090868,-14.276457221872741,-13.859176930256258,-13.433955805533216,-13.000919584927827,-12.560221362727027,-12.112026508479921,-11.656505156215506
mp-12170,La2SnS5,Orthorhombic,Pbam,True,0.0,-1.8388573678124995,8.0,-14.598369613786872,-14.537197163324196,-14.463435733067588,-14.384197400793708,-14.297437965638487,-14.146490390995876,-13.731273279609773,-13.31112830623669,-12.880267968453657,-12.430605171649832,-11.974168716362303,-11.510805610780759,-11.040470629099616,-10.56317147651157,-10.07896311406638,-9.587929559927588,-9.09016953122265
mp-1198687,La2ZrS5,Orthorhombic,Pnma,True,0.0,-2.291879551562502,8.0,-18.235040665441982,-18.17800213016299,-18.12273746941976,-18.063006426429162,-17.995817502819758,-17.864372035307767,-17.4684829107227,-17.067393342920404,-16.65292789352933,-16.218348900492906,-15.776961010334652,-15.328582211189316,-14.873129965752126,-14.410572594855516,-13.940926711619507,-13.46422969483365,-12.980541913695669
mp-1211604,La3CrS6,Orthorhombic,Pnnm,False,0.023654019249999436,-2.1029103982500006,10.0,-20.866783361186894,-20.787923024189574,-20.71169486168288,-20.630026489672943,-20.53916091587638,-20.370705656656682,-19.88428016563028,-19.390864666263028,-18.881921210023023,-18.345380649846895,-17.799287614690197,-17.2433805170676,-16.677530922353874,-16.101670600196094,-15.515793499354224,-14.919924578274014,-14.314107298659913
mp-540877,La3InS6,Orthorhombic,P2_12_12,True,0.0,-2.0809941964374987,10.0,-20.646201527458523,-20.56016859651269,-20.473723843581347,-20.381439855391463,-20.27977521721057,-20.10051260216227,-19.603421746290323,-19.09961346330777,-18.580666921332963,-18.034629053522256,-17.479654350467726,-16.915585904167905,-16.342403068773013,-15.76013814769185,-15.16888769630718,-14.568776170395939,-13.959946528993758
mp-650031,La4(GeS4)3,Trigonal,R3c,True,0.006461264703951919,-1.6421416610526314,19.0,-31.12758545651077,-31.03462488313012,-30.94703223404739,-30.85007370045982,-30.736530466376564,-30.470253568860677,-29.57090873487639,-28.660735494258365,-27.72755600037974,-26.669865831378303,-25.58685582984173,-24.487996228343086,-23.3731331705508,-22.242249782436325,-21.095446086568995,-19.932888589864,-18.75479315452634
mp-28727,La4Bi2S9,Orthorhombic,Pnma,True,0.011001241166667342,-1.8720240230000003,15.0,-27.97489192357125,-27.890369457354797,-27.784941130471843,-27.651787790157975,-27.504733449465057,-27.241645412372925,-26.502279853139484,-25.753374506041084,-24.98351592913182,-24.176646833904535,-23.35688189141859,-22.523949982818404,-21.677784382475913,-20.8184117804631,-19.945950062660277,-19.060563629476352,-18.061418569980415
mp-21571,La4In5S13,Orthorhombic,Pbam,True,0.013611908219701263,-1.5348202160937618,22.0,-33.36979720376992,-33.15642662238583,-32.93582220965597,-32.7027893681483,-32.44912324238256,-32.02737057719914,-30.917348987365134,-29.79339644349176,-28.643353079060695,-27.450709678756624,-26.239332224385066,-25.00881074143446,-23.759044567287887,-22.490055538994376,-21.202010993667805,-19.895152604670912,-18.569755601164857
mp-37478,La5AgS8,Tetragonal,I-4,False,0.0246851247916684,-2.2272699976190475,14.0,-30.95942551098038,-30.85190775097732,-30.748485876324526,-30.63761395182471,-30.514122150451442,-30.28652051731912,-29.634125590491227,-28.971484891401587,-28.284829051239107,-27.54809901091506,-26.794639958123785,-26.027524961467346,-25.246787717160267,-24.452533562945764,-23.64494846145587,-22.824248107999615,-21.990676382595367
mp-1188606,La5Pb3S,Hexagonal,P6_3/mcm,True,0.0,-1.0555818869444427,9.0,-9.136654390852273,-9.037151166679742,-8.947891595097316,-8.832541245129347,-8.710681253113973,-8.56803702812719,-8.362771649237905,-8.145644863297886,-7.904063048835496,-7.619120547054363,-7.321772868368527,-7.012248283061764,-6.690832816803004,-6.357807395279734,-6.013469313734692,-5.658111439495176,-5.292021735066214
mp-36088,La5SmS8,Tetragonal,I-4,False,0.03127517642857214,-2.4202160592857145,14.0,-33.606398862506666,-33.482770083130895,-33.3611860930801,-33.23006157279672,-33.084223585962754,-32.832201869872705,-32.15334405550607,-31.46222668435159,-30.744843045006068,-29.97968297199118,-29.196241313570262,-28.394940985471877,-27.578860716817214,-26.74817943191737,-25.90314527923634,-25.04403303062357,-24.171135278332496
mp-35714,La5TlS8,Tetragonal,I-4,False,0.011025801507938304,-2.2691479198809503,14.0,-31.596582306743866,-31.50123715084269,-31.406771836347133,-31.298438894142706,-31.177163745168997,-30.95158806121811,-30.301138241990056,-29.640458196958264,-28.95585836246267,-28.22764025359711,-27.486207668202546,-26.731396902325706,-25.963225069292612,-25.18178092395796,-24.33470754664043,-23.43033588372436,-22.513722998624534
mp-1195582,La8Sb2S15,Tetragonal,I4_1cd,True,0.0,-2.112369190799999,25.0,-52.59214697447033,-52.44087898771058,-52.295708978764196,-52.13665757338518,-51.954521439437414,-51.57827791060827,-50.36316829337502,-49.12875953755107,-47.85464940537675,-46.50910779231741,-45.14064628112622,-43.74891872295824,-42.3339051143203,-40.89571627021986,-39.434626744890885,-37.99669623972835,-36.40669579174717
mp-1103471,LaAsS,Orthorhombic,Pnma,True,0.0,-1.9008699809375003,3.0,-5.656034950021091,-5.638320734926814,-5.623347045372453,-5.607859394226381,-5.590336943844006,-5.55876130136529,-5.472698771341764,-5.383749271463545,-5.289180095203916,-5.185064855079616,-5.077531765916083,-4.89908648371626,-4.712216777517356,-4.522772624396838,-4.3307814363237345,-4.13627692252426,-3.939301348850785
mp-10328,LaCrS3,Orthorhombic,Pnma,True,0.0,-1.7599097575000002,5.0,-8.74853038132212,-8.717130843630386,-8.687374387017206,-8.65514138682771,-8.618380781236437,-8.542900474147249,-8.308509674153107,-8.070692274403733,-7.826340621045675,-7.5712406307788935,-7.3112654239058985,-7.046216838699371,-6.775963808077304,-6.5004105492464905,-6.219492368970204,-5.933164224576718,-5.641389288593123
mp-4841,LaCuS2,Monoclinic,P2_1/c,True,0.0,-1.6858297614062483,4.0,-6.676573995058195,-6.647467974616473,-6.620567749296186,-6.592225647564347,-6.560688885462992,-6.502879683923169,-6.33850860098885,-6.171138788905887,-5.997860431789531,-5.814591893512263,-5.623058565688431,-5.421579817055055,-5.215998454204599,-5.0063616007081775,-4.792735862343294,-4.575194859322988,-4.353819820449879
mp-558977,LaErS3,Orthorhombic,Pnma,True,0.0,-2.447513416833332,5.0,-12.105963883211889,-12.053044617261746,-12.001214978485407,-11.94653464471026,-11.887070707191615,-11.788716057137075,-11.531350380415851,-11.270518719579135,-11.003165242300136,-10.725125613944403,-10.442317521327386,-10.154587369234688,-9.861845547805629,-9.564035658607278,-9.260560283108815,-8.94122772371805,-8.617154181930312
mp-1222958,LaEuS2,Trigonal,R-3m,False,0.023649625000000896,-2.422358358906248,4.0,-9.533065909619312,-9.480578730078454,-9.42993874069453,-9.377648552361872,-9.322059024175838,-9.240174255079605,-9.05177320753234,-8.860269787783107,-8.660907260736916,-8.451414634407826,-8.23786823578874,-8.020245722469868,-7.798570343599511,-7.572886113457184,-7.238450600146141,-6.907535174825165,-6.573442810609466
mp-4816,LaGaS3,Monoclinic,P2_1/c,True,0.0,-1.6841287401874998,5.0,-8.343350648863343,-8.289853092802685,-8.237843153240597,-8.183417819503656,-8.124675275763177,-8.027541579003831,-7.771928544441357,-7.51342267184827,-7.249011658980178,-6.974574701285033,-6.696078197813339,-6.413416229155235,-6.126549970546165,-5.835475881510396,-5.540221511128646,-5.240830949755056,-4.937362721525766
mp-1200097,LaHoS3,Monoclinic,P2_1/m,True,0.0,-2.4614368194375005,5.0,-12.169349493667976,-12.11511516092906,-12.06209586345847,-12.006376153416387,-11.946055251404658,-11.847003247159154,-11.589039713578163,-11.327635070214473,-11.059650570298638,-10.780831709739818,-10.496999787313868,-10.2079048197668,-9.913356663476206,-9.6131973498169,-9.30032896795356,-8.978809703695564,-8.652265475074486
mp-1106374,LaLuS3,Orthorhombic,Pnma,False,0.0,-2.46156299152083,5.0,-12.279032927034613,-12.252411791945796,-12.227263763328086,-12.199603952495927,-12.167456957052785,-12.096676283845992,-11.867101197953968,-11.634241503289765,-11.39500820174953,-11.145202756491221,-10.890710724983755,-10.631345346235669,-10.366987990331356,-10.097551165921882,-9.822980544075847,-9.543238337135257,-9.251405818886465
mp-2889,LaPd3S4,Cubic,Pm-3n,True,0.0,-1.113409578281253,8.0,-8.867289995261968,-8.831678571876045,-8.800359549221668,-8.766068677148862,-8.725092065204514,-8.631405781928443,-8.324555315072585,-8.011780976487303,-7.689727766211146,-7.354060986378881,-7.010612101154061,-6.659192361872986,-6.299710421571341,-5.932104026380829,-5.556347813984875,-5.150038369267248,-4.728346700385085
mp-1190131,LaScS3,Orthorhombic,Pnma,False,0.0,-2.3740622886875,5.0,-11.803143979841614,-11.767194922004322,-11.732736589957199,-11.6957250184743,-11.654155785104157,-11.573863740944502,-11.334685041782155,-11.092131564391241,-10.843121565681633,-10.583469982408229,-10.3190768820674,-10.04977415941729,-9.775461840291886,-9.493602311561673,-9.206279400485318,-8.906708156633432,-8.601127339411878
mp-1222697,LaSmS2,Trigonal,R-3m,False,0.0,-2.347171631250001,4.0,-9.256303669061388,-9.208006158617852,-9.159775250675137,-9.107931144353724,-9.050712764251386,-8.965050622743432,-8.77067186076237,-8.571160359164718,-8.363369995904144,-8.14150073302901,-7.910704401496572,-7.671530768551386,-7.427053298401091,-7.177395810476258,-6.922689169247461,-6.6630681443291895,-6.3986647496202025