,pretty_formula,crystal_system,spacegroup,experimentally_observed,"energy_above_hull, eV/atom",Ef,total_atoms,Gf_400,Gf_500,Gf_600,Gf_700,Gf_800,Gf_900,Gf_1000,Gf_1100,Gf_1200,Gf_1300,Gf_1400,Gf_1500,Gf_1600,Gf_1700,Gf_1800,Gf_1900,Gf_2000
mp-4194,Zn(CrS2)2,Cubic,Fd-3m,True,0.0,-1.0470491214285684,7.0,-7.29727760307704,-7.265439417986858,-7.2370426564237516,-7.205060788059127,-7.156565840873256,-7.056038779279593,-6.743290227598262,-6.425698626030037,-6.083580927729599,-5.653183138209871,-5.216677669942665,-4.7736499767501765,-4.323784212538502,-3.8668298902482885,-3.402583572063028,-2.930877933330663,-2.451561814614875
mp-1444973,Zn(CrS2)4,Trigonal,R-3m,False,0.07655649384613561,-0.888107083076923,13.0,-11.556911923424927,-11.511942505343097,-11.472180994837027,-11.425909786470175,-11.357565513702676,-11.186382840795599,-10.592129999876597,-9.989629449560308,-9.358257785656125,-8.633581374431023,-7.897273707435062,-7.148535893140263,-6.3867532285434585,-5.611432391705662,-4.822167733976187,-4.018623042993816,-3.2004891662821997
mp-5350,Zn(GaS2)2,Tetragonal,I-4,True,0.0,-0.8744608966071438,7.0,-5.995211612552287,-5.9088276094787,-5.825574100772219,-5.738857784067138,-5.636049179337311,-5.481865557157768,-5.116322755094212,-4.747004426593005,-4.3544182280269474,-3.8749967224049358,-3.3910988796947716,-2.90249463835357,-2.409052636922345,-1.9107068729766523,-1.4074383933349086,-0.8992581393967729,-0.38620565494404246
mp-674328,Zn(InS2)2,Monoclinic,P2/m,False,0.0001616473469372437,-0.8054539316071408,7.0,-5.48702007073668,-5.411773804653554,-5.333880969145233,-5.251604975324794,-5.152449006274342,-5.001244339927567,-4.638102165459229,-4.270662103564483,-3.8794753406985283,-3.4010200428137267,-2.9176883456549376,-2.4292750620120795,-1.9356799233421587,-1.436853510109266,-0.9327975977424857,-0.42354385625213453,0.09085987913571891
mp-675748,Zn2GeS4,Tetragonal,I-42m,False,0.01416833348214297,-0.8773694792857134,7.0,-6.109187000532975,-6.076948649921232,-6.048128921364838,-6.014971637439787,-5.955144255467706,-5.843393584293823,-5.519739607205975,-5.191745249039856,-4.821175356405093,-4.253070047889173,-3.677573959625616,-3.097722822681792,-2.5133614376964513,-1.9244030736344853,-1.330811157995237,-0.7325800492898473,-0.1297337448420972
mp-560806,Zn2In2S5,Hexagonal,P6_3mc,True,0.07071159563492557,-0.769704392911701,9.0,-6.756442664614916,-6.670094546675816,-6.582244214093575,-6.4884150376233745,-6.3655784215206594,-6.1772304127844055,-5.723484652747096,-5.263887746321327,-4.760092846145435,-4.085397226521451,-3.4047907037140686,-2.717986442032041,-2.024833093459268,-1.3252498694271395,-0.6192231360184159,0.09322267494771097,0.8120369435583399
mp-637614,Zn3(InS3)2,Trigonal,P3m1,True,0.07165012740259513,-0.7909115763392885,11.0,-8.505777059791086,-8.407423593177617,-8.308712266703049,-8.202426410764696,-8.055005650791305,-7.828610802847179,-7.283357960422493,-6.730700712647302,-6.113394178343068,-5.241554740161506,-4.362769894887126,-3.4766711583475285,-2.5830561030535044,-1.6818125714037284,-0.7729115201346666,0.1436298571256387,1.0677581557774438
mp-981379,Zn3CdS4,Cubic,P-43m,False,0.01854530866071613,-0.8971496232812495,8.0,-7.046547012436488,-6.988927627625179,-6.935061699668127,-6.865288232807236,-6.757275934920736,-6.595630506097396,-6.220337917065775,-5.77925515584352,-5.236658460485447,-4.442252621129644,-3.643707729705639,-2.84069822871934,-2.0330208367088467,-1.220548004682259,-0.4032201681154177,0.41899369861732794,1.2460803839075147
mp-1215784,Zn4CdS5,Trigonal,P3m1,False,0.026221206785717044,-0.8987782231919639,10.0,-8.851154344770684,-8.785873485038815,-8.725490436943248,-8.64760416436801,-8.519351596364654,-8.324003202087248,-7.861547404422062,-7.331748175604194,-6.679983719871595,-5.692777935712023,-4.70039859557483,-3.702438493484774,-2.6986432685068387,-1.6888540026164236,-0.6729957219430567,0.3489698373300598,1.3770266789076118
mp-1215515,Zn4FeS5,Trigonal,R3m,False,0.09495188350000028,-0.9069603582499994,10.0,-8.922278867876994,-8.85442899897574,-8.791897732507284,-8.721612943585376,-8.600161734863685,-8.410377201811256,-7.951706750576001,-7.4841174937775286,-6.929320744427184,-6.037933265188498,-5.140243557121492,-4.235862033569983,-3.3245467707653518,-2.4061543971410124,-1.480616157409667,-0.5392489206767479,0.40965956467659836
mp-1207467,Zn4InS6,Trigonal,P-3m1,False,0.09531809122159096,-0.7733343161586855,11.0,-8.352556323872209,-8.270526531220103,-8.190913403244384,-8.103056211680409,-7.963725721512294,-7.745133015685199,-7.207416989161036,-6.6620581782637185,-6.033111385703403,-5.067629305475535,-4.09586306083505,-3.1173985646661007,-2.1319898593970734,-1.1394905852190504,-0.1398406059524966,0.8669739776905488,1.8809215261515284
mp-1078780,ZnCd3S4,Cubic,P-43m,False,0.013561217053570829,-0.8090887345312492,8.0,-6.321716111795012,-6.258432969301051,-6.197255359113489,-6.1011206168210705,-5.987289096671935,-5.820259746409916,-5.439970860959055,-4.874737530632682,-4.168572740130177,-3.376037993068403,-2.5793621210773594,-1.7782216395240233,-0.9724153398075561,-0.1618115272139331,0.6536452170588802,1.473990064358663,2.2992056573548254
mp-971712,ZnCdS2,Tetragonal,P-4m2,False,0.020163146607144355,-0.8490092951562485,4.0,-3.325368824344858,-3.2950788370902857,-3.2662535971258793,-3.2247121894092987,-3.169186879472136,-3.086953829272543,-2.8979941052236695,-2.646350726908258,-2.3340960000148616,-1.9372964979822136,-1.5384269517001972,-1.1373251006370353,-0.7338898222770407,-0.32805630569373534,0.08020419494443143,0.49090822888081753,0.9040481538806588
mp-1215447,ZnHgS2,Trigonal,R3m,False,0.040400149999999524,-0.6787044893750012,4.0,-2.5725716037933832,-2.524118422566448,-2.477992298833335,-2.3624116542361655,-2.2043742878091486,-2.0207879104558675,-1.731504034772816,-1.4402132939614356,-1.1277411677787859,-0.730725302887417,-0.3316383573161481,0.06967985660573284,0.4733325342549808,0.8793824136970061,1.2878603136244262,1.6987807104195323,2.112138034708625
mp-1198156,Zr(TlS)4,Triclinic,P-1,True,0.0,-1.0033646919259303,9.0,-8.79542635169545,-8.710768432995808,-8.620523726921505,-8.502942452960697,-8.377500031537137,-8.198168749479837,-7.8045543971599844,-7.404016192849761,-6.9933536850003275,-6.573440973326999,-6.1453113005338,-5.70882552228048,-5.263940597541654,-4.81067678972571,-4.138977971263546,-3.2814352941899214,-2.4174542004108104
mp-1215461,Zr2As3S,Tetragonal,P4mm,False,0.045526718958335266,-1.0395431275,6.0,-6.197507976659514,-6.183562734391179,-6.178720867916354,-6.175179937666307,-6.1687239925576876,-6.145995627084957,-6.065759517511884,-5.97910584486828,-5.880724660680701,-5.773014006171662,-5.658478017889492,-5.334568801745862,-4.988626512076785,-4.638076863518101,-4.282851344774411,-3.922894039064687,-3.5581775435960754
mp-1215573,Zr2CoS4,Monoclinic,Cm,False,0.011608522857141423,-1.5721064328571412,7.0,-10.96141491322052,-10.925846369828252,-10.893380337178687,-10.857873323757557,-10.815327243019563,-10.720624676209784,-10.413410418763032,-10.100896045564223,-9.7773426461623,-9.444721468335821,-9.104964472672883,-8.758079976653255,-8.40452012920816,-8.044311170230621,-7.674406732951443,-7.2913446800533785,-6.901597679638087
mp-14025,Zr2CuS4,Cubic,Fd-3m,True,0.0,-1.5949051107142853,7.0,-11.129565157015902,-11.096648225898264,-11.067277397791562,-11.03540867851271,-10.99769071416916,-10.908480615725633,-10.607514384503867,-10.30211449345584,-9.986673658808208,-9.663325847933255,-9.33001380029662,-8.984877149126634,-8.633604090408472,-8.276121366703954,-7.9123892962208355,-7.542385654581707,-7.166113710499708
mp-1215638,Zr2FeS4,Monoclinic,Cm,False,0.012520958571424323,-1.5711939971428583,7.0,-10.972233545953493,-10.9409161563636,-10.912440097022035,-10.880522994723073,-10.841547132927111,-10.749552474855712,-10.443832465992905,-10.13224748673743,-9.806766042298683,-9.473069801764241,-9.133396472729508,-8.787497337902009,-8.43519854217088,-8.076387443737696,-7.710987049311001,-7.3302867373532195,-6.942527326455698
mp-1215577,Zr2NiS4,Monoclinic,Cm,False,0.0,-1.627088952857143,7.0,-11.347148809059902,-11.311446088968308,-11.278250968493335,-11.241149447751539,-11.197516710654169,-11.10195446577179,-10.794257790966538,-10.481776106384258,-10.158924929723337,-9.827881758438448,-9.490876008680733,-9.14765067171345,-8.798026710273072,-8.44188422754744,-8.071560595172294,-7.6914239085090435,-7.304459246914968
mp-1215370,Zr4CuS8,Cubic,F-43m,False,0.0,-1.7138042630769212,13.0,-22.26093654321744,-22.207273841414775,-22.158726804870415,-22.104676444513053,-22.03920027062305,-21.871458842678358,-21.281193445612757,-20.68322031945769,-20.066441893053597,-19.435226937186272,-18.78978446706232,-18.128016943695595,-17.455442223548143,-16.771868585966143,-16.077172291403954,-15.37126587082834,-14.654112752993186
mp-1189323,Zr5Sb3S,Hexagonal,P6_3/mcm,True,0.0,-1.0575871330555542,9.0,-9.43440605629724,-9.409767536226859,-9.399428221423163,-9.391160018683214,-9.378194890898504,-9.34555347438242,-9.18523208653108,-9.0107079950544,-8.81233104119517,-8.596661700789337,-8.370098299196266,-8.132603780483228,-7.884166714756109,-7.62481202936069,-7.354581021198001,-7.142098940867335,-6.723995669306646
mp-1189510,Zr5Sn3S,Hexagonal,P6_3/mcm,True,0.0,-0.934784468055557,9.0,-8.255056395203,-8.208885989715315,-8.133864040673249,-8.057816349261604,-7.976888284600811,-7.876625953284618,-7.715126102827804,-7.5430707477921395,-7.347992711231052,-7.1363809552736885,-6.914577838030635,-6.682493445611961,-6.4400697087495455,-6.187306680456386,-5.924195908967903,-5.6507483525063495,-5.366980428777042
mp-1207526,Zr6FeS2,Orthorhombic,Pnnm,False,0.0,-0.9046188580555486,9.0,-8.031926200189618,-7.993842914621583,-7.967045930760096,-7.940148736995212,-7.906783358404252,-7.841221610240337,-7.661273148760544,-7.470060264217162,-7.250124330215512,-7.012681986762149,-6.765240021671737,-6.507589849758297,-6.23955783974926,-5.961031591944749,-5.671907821186405,-5.363433429107378,-5.043810043549268
mp-1207420,Zr9Mo4S,Hexagonal,P6_3/mmc,False,0.025266055982143598,-0.30974227339285676,14.0,-4.42490599780119,-4.446563392947638,-4.492301126986351,-4.542459050075283,-4.58640016412514,-4.607050226537209,-4.560856935658947,-4.497369108462358,-4.394136233989872,-4.262763656946136,-4.114537695771187,-3.949149028021827,-3.7663302668426937,-3.565887739768181,-3.347625484778778,-3.1113518799839675,-2.856909188570505
mp-9483,Zr9V4S,Hexagonal,P6_3/mmc,True,0.03592894419642789,-0.23936707232142954,14.0,-3.2282123679480894,-3.1953129225983377,-3.185598340160129,-3.1795742996767338,-3.1666867175015234,-3.1298572053136464,-3.025516878572029,-2.9031813884716122,-2.7403463296671013,-2.548588026808206,-2.3391471953914955,-2.1116813471967255,-1.8659023667578545,-1.6016165816092744,-1.3186363211757595,-1.0167741092889067,-0.6958680634133394
mp-1207423,Zr9W4S,Hexagonal,P6_3/mmc,False,0.036205353839289245,-0.3016027755357129,14.0,-4.420925781969723,-4.470126114323903,-4.543796483450849,-4.62233477961837,-4.6950915675707865,-4.744951147488043,-4.7283280519405375,-4.694758660733873,-4.621792462910486,-4.521043094619284,-4.4038341857994965,-4.269893725507135,-4.119012366996685,-3.9510627693566716,-3.765927739288113,-3.563502715065294,-3.343717020039751
mp-4997,ZrGeS,Tetragonal,P4/nmm,True,0.0,-1.3032996475,3.0,-3.8974319963202273,-3.8892257743785774,-3.884526000140908,-3.879982834866536,-3.8737593295982293,-3.8538619658087496,-3.7798601573412274,-3.7033320568445802,-3.6215594678195586,-3.5073813030886445,-3.3871009342374006,-3.263953146148899,-3.1379019995119055,-3.008935420307861,-2.8770481729439963,-2.7422428737305307,-2.6045301773885683
mp-20244,ZrPbS3,Orthorhombic,Pnma,True,0.002771760999997319,-1.4192564584999985,5.0,-7.062476757890055,-7.03493295920758,-7.009084063130322,-6.97254387507026,-6.931218010405638,-6.851219083617103,-6.612568771556919,-6.37093337914867,-6.123403210770746,-5.871002303038121,-5.614806139314927,-5.354662160817299,-5.090470393379228,-4.82216718355405,-4.549715821729425,-4.273095103135891,-3.992301366077596
mp-3938,ZrSiS,Tetragonal,P4/nmm,True,0.0,-1.34442780083333,3.0,-4.012269404331246,-4.0029071417844335,-3.997392312587041,-3.9922237591405274,-3.9854919823503376,-3.9651702979121666,-3.8908177553638126,-3.814030126673262,-3.732106834660324,-3.6462051836072975,-3.5574909589464547,-3.465877185701827,-3.3713020137988456,-3.269099796124686,-3.137714797008851,-3.0034355839456772,-2.8662707387952056
mp-17324,ZrSnS3,Orthorhombic,Pnma,True,0.0,-1.3970170754999998,5.0,-6.987240522662253,-6.968333212003354,-6.937163193958483,-6.902912393336415,-6.864196173144562,-6.787012104074375,-6.551321750007197,-6.312744776492606,-6.068334176409806,-5.8190818570272365,-5.56605190097316,-5.309087603741583,-5.048090027597031,-4.783003810537099,-4.513797425102116,-4.24046106725849,-3.9629972938935687
mp-1215189,ZrTiS4,Trigonal,P-3m1,False,0.032646719999999796,-1.694623342222221,6.0,-10.181278456210233,-10.159592393126768,-10.139198128907763,-10.11557974520539,-10.086250057065753,-10.006069516681405,-9.715053771969735,-9.420659278511007,-9.11838243078663,-8.808226597272073,-8.493704879639772,-8.174556267772996,-7.850593839260085,-7.5216794387052595,-7.187712425466595,-6.848612008430262,-6.499617406558096
mp-1215190,ZrTiS6,Monoclinic,Pm,False,0.01904213187500048,-1.4384743622916654,8.0,-11.479113377964156,-11.434126076457446,-11.389369404422498,-11.339518273237038,-11.28160709529296,-11.148371331781783,-10.700125501911113,-10.248271186122286,-9.787994090263041,-9.319084509990454,-8.844908241229499,-8.365101378556352,-7.879408818982446,-7.387644973406024,-6.889680836457195,-6.385418014525662,-5.87008762873948
mp-1102830,ZrTl2S3,Monoclinic,P2_1/m,True,0.0,-1.228970914027779,6.0,-7.270840604457197,-7.225920233138391,-7.178598858694096,-7.11685784214634,-7.04979210975022,-6.943088667048551,-6.67655173012994,-6.405734349900344,-6.127663728738783,-5.843335617356299,-5.553833206040142,-5.259027629566573,-4.958854782542112,-4.653295180867039,-4.237299746318465,-3.727147743749807,-3.2125319341242324