,pretty_formula,crystal_system,spacegroup,experimentally_observed,"energy_above_hull, eV/atom",Ef,total_atoms,Gf_400,Gf_500,Gf_600,Gf_700,Gf_800,Gf_900,Gf_1000,Gf_1100,Gf_1200,Gf_1300,Gf_1400,Gf_1500,Gf_1600,Gf_1700,Gf_1800,Gf_1900,Gf_2000
mp-22841,Ba2In2S5,Orthorhombic,Pbca,True,0.0,-1.5818637082870337,9.0,-14.080331737559987,-13.993040761423252,-13.89764136242448,-13.793468902820127,-13.67726780857885,-13.493098981340252,-13.04176010658875,-12.565984813126665,-12.081447085846053,-11.587963347103045,-11.085492579353975,-10.574073386095026,-10.053801089777021,-9.52478353218839,-8.987150106825489,-8.44102888856083,-7.886534756000376
mp-1193204,Ba2InS4,Triclinic,P-1,True,0.0013378027678534465,-1.7237792266666676,7.0,-11.957215535922892,-11.894183595387164,-11.824673401744839,-11.747316298948295,-11.659719631348233,-11.517329798399816,-11.160964834901481,-10.781478332631968,-10.394741994188887,-10.000689444922426,-9.59934561323952,-9.190785148174065,-8.775110921567578,-8.352427942033612,-7.92284991949883,-7.486481074110888,-7.0434117347477105
mp-18445,Ba2MnS3,Orthorhombic,Pnma,True,0.0,-1.86277042590517,6.0,-11.074589594642145,-11.02530182397902,-10.972247034747598,-10.911844168941027,-10.841761506185408,-10.728380460480821,-10.451800630617848,-10.149451006767624,-9.839269813747885,-9.52133245195615,-9.195111498631015,-8.858923442748866,-8.50816772247223,-8.148301352639034,-7.781081494338201,-7.406675063353349,-7.02523136829754
mp-14406,Ba2Re6S11,Trigonal,R-3c,True,0.0,-1.1697407619736806,19.0,-22.364960102884886,-22.327765210595672,-22.292764692311586,-22.245897382645932,-22.179069718237823,-21.96798535572848,-21.17311843789807,-20.348300970095572,-19.50779444859718,-18.65047844905323,-17.77568321395815,-16.883013711854296,-15.972311422472707,-15.04350505918185,-14.096646450531267,-13.13180467896598,-12.149116319755251
mp-5838,Ba2SiS4,Orthorhombic,Pnma,True,0.0,-1.8966096796428553,7.0,-13.184395401326913,-13.133712855841333,-13.080183709837641,-13.019712458535253,-12.94966703083169,-12.82532592443573,-12.487382802481816,-12.126605233014438,-11.758796514215998,-11.3838343041879,-11.001694819102017,-10.61241746935411,-10.216067815286502,-9.808094183126883,-9.367052527710445,-8.91932680178577,-8.465003188508653
mp-541832,Ba2SnS4,Monoclinic,P2_1/c,True,0.0,-1.703352128571426,7.0,-11.850725654341407,-11.802235310151346,-11.735849394100477,-11.660964654089975,-11.57595228377355,-11.43624002685676,-11.082625189527377,-10.705954108550415,-10.322094340801343,-9.930971220186084,-9.53260656581998,-9.127072953875857,-8.714467037612032,-8.294894862072589,-7.868464955031523,-7.4352805002059625,-6.995429753612765
mp-17908,Ba2TiS4,Orthorhombic,Pnma,True,0.0,-2.098654923333331,7.0,-14.609232109912899,-14.559337050735008,-14.505631510643093,-14.444218979518942,-14.372607304382075,-14.246149605939651,-13.905547838770397,-13.54151256723946,-13.16851009414136,-12.785583750998246,-12.395278028843364,-11.997612645892339,-11.592630361015773,-11.180378142717347,-10.7609095879528,-10.334265694607257,-9.895775429688928
mp-5587,Ba2ZnS3,Orthorhombic,Pnma,True,0.0,-1.9117596916666653,6.0,-11.334284452036606,-11.277158370946257,-11.21685914598316,-11.148978647574936,-11.06169456095477,-10.9315660479592,-10.639284509213287,-10.323757921259098,-9.982313014899766,-9.55192626323841,-9.115359874026133,-8.672694341006912,-8.224023096228322,-7.7694406629493,-7.309043840544508,-6.842914557493836,-6.371125426550883
mp-3813,Ba2ZrS4,Tetragonal,I4/mmm,True,0.0015515849999943043,-2.17303885142857,7.0,-15.148593397228261,-15.10362874352982,-15.055131372300265,-14.999145696880992,-14.933095613418317,-14.81227723894008,-14.477382163719675,-14.119158263621445,-13.751085159572263,-13.374437618032346,-12.990513304103454,-12.59935577390348,-12.201024369191547,-11.79558575065147,-11.383110098127528,-10.963653955962844,-10.53726723224454
mp-30904,Ba3(CrS3)2,Trigonal,R-3c,True,0.025975898545453013,-1.7154416268181814,11.0,-18.728788618734598,-18.650530682876298,-18.568093567780824,-18.47468864965573,-18.36598393139776,-18.1746371975119,-17.66149004286161,-17.112515411917144,-16.551265438580025,-15.97740306714368,-15.390749820407025,-14.791216014011102,-14.178753648616151,-13.553332444632977,-12.914932686672843,-12.2635280382814,-11.599069297435605
mp-29302,Ba3(GaS3)2,Monoclinic,C2/c,True,0.0,-1.791908577272728,11.0,-19.51900069314552,-19.396952948350247,-19.270415095157823,-19.1330317377387,-18.980769370983197,-18.746522085557885,-18.19133668957179,-17.601391340740765,-17.000428876184454,-16.38829879769225,-15.76500918555906,-15.130654840060846,-14.485372246492773,-13.82931560990055,-13.162649699530355,-12.485526444979566,-11.79808734744325
mp-29354,Ba3(TaS4)2,Monoclinic,P2/m,True,0.0,-1.8421416047179393,13.0,-23.922275679282265,-23.859402315812446,-23.79117459635411,-23.710191648641665,-23.61182548469149,-23.40677472689287,-22.776347743145866,-22.110632577389254,-21.433032358054074,-20.74316071263961,-20.040851468499426,-19.326086166297088,-18.598949693639344,-17.859544676143816,-17.107993008301275,-16.344404142879775,-15.568880390324656
mp-30903,Ba3CrS5,Hexagonal,P6_3cm,True,0.09686817077777743,-1.7769444074999998,9.0,-15.818906299180327,-15.7381580892919,-15.651816873445615,-15.55503498026576,-15.44455890858206,-15.264607097475166,-14.816191773549885,-14.33353643450007,-13.840508048583066,-13.337002843306067,-12.823018149055136,-12.298605006492856,-11.763830754445646,-11.218762813911143,-10.663468392553714,-10.097996796525333,-9.522373771406123
mp-630328,Ba3FeS5,Orthorhombic,Pnma,True,0.07373367527777841,-1.7612677666666658,9.0,-15.710080786626163,-15.636688685558925,-15.557030935117755,-15.466088852888955,-15.3604016515956,-15.183922444101839,-14.73727168627089,-14.255262604770051,-13.759380450491253,-13.253095063420325,-12.736477360511177,-12.209656114716399,-11.6727763971524,-11.125985433967873,-10.569430237978246,-9.99458157981184,-9.409816762285644
mp-1200759,Ba3GeS5,Orthorhombic,Pnma,True,0.0,-1.861464824166668,9.0,-16.63972457378704,-16.57421935401801,-16.50336779875802,-16.422391677477112,-16.328086201240055,-16.164710229918303,-15.733312265185322,-15.268142751928838,-14.793099751322188,-14.279821212383682,-13.753503201054126,-13.21758795870089,-12.672239212189975,-12.11762180698915,-11.55389830237183,-10.981211283237986,-10.399683919637859
mp-1195624,Ba3Sb2S7,Monoclinic,C2/c,True,0.0,-1.5155305889583328,12.0,-18.157488093229425,-18.100102925046507,-18.037852528350076,-17.963661847291256,-17.87297626632822,-17.687353762966247,-17.08397752193474,-16.44290322270021,-15.789631608829804,-15.123982341563213,-14.445954107014654,-13.755646225055337,-13.053210839357558,-12.338813676752206,-11.612648854203847,-10.920621017395913,-10.087280739817167
mp-27805,Ba3SiS5,Orthorhombic,Pnma,True,0.0,-2.00373519972222,9.0,-17.86869432460302,-17.79130391993007,-17.708908165411614,-17.616577511659806,-17.511034619602114,-17.336505183332918,-16.894027340220354,-16.417869154471212,-15.931946306577892,-15.436215137018523,-14.930734125580619,-14.415623753772502,-13.89102183769684,-13.352439649727147,-12.778489249059099,-12.195599171776795,-11.603890515069413
mp-556291,Ba3Sn2S7,Monoclinic,P2_1/c,True,0.0,-1.583036888541665,12.0,-18.902453539174175,-18.82679052279828,-18.717495112028182,-18.594194847273467,-18.454277383811604,-18.219651012668123,-17.61156587198488,-16.968214139129582,-16.31321854554318,-15.646351076660803,-14.967573107097483,-14.27694871808631,-13.574598960383575,-12.860672977931621,-12.135331721917971,-11.398736976441349,-10.651030339502086
mp-1096836,Ba3SnS4,Cubic,Pm-3m,False,0.055717484375000126,-1.880307774374999,8.0,-14.92548213182142,-14.863859382050824,-14.782712895788366,-14.691009961465204,-14.58671570609208,-14.425267565260684,-14.047657883747364,-13.636260932048899,-13.215211993667591,-12.784621621295287,-12.344667550536702,-11.895554876330763,-11.437486597984599,-10.97065542354109,-10.49524016749871,-10.01139739815834,-9.519254334487083
mp-1096842,Ba3SnS5,Tetragonal,I4/mcm,False,0.04209588777777373,-1.8003078336111105,9.0,-16.08113792783816,-16.011978921390877,-15.922765593755393,-15.822060648225634,-15.707590010485234,-15.523728620625365,-15.071618259067487,-14.585605758738915,-14.089671058825115,-13.583818175608739,-13.068151191820771,-12.542823754746593,-12.00800477340487,-11.463863238985507,-10.91056378362299,-10.348254174369956,-9.777057581276644
mp-9668,Ba3TiS5,Tetragonal,I4/mcm,True,0.0033715922222192773,-2.146489858425927,9.0,-19.161582903506652,-19.084374147095794,-19.001196160443506,-18.907318388824343,-18.79960341128774,-18.622351544926495,-18.17660921855299,-17.69658749269469,-17.204865052456114,-16.700563911736126,-16.186310825183625,-15.662206582126792,-15.128366197196573,-14.58489958504248,-14.03191644698072,-13.469502364231953,-12.893021217837752
mp-8570,Ba3Zr2S7,Tetragonal,P4_2/mnm,True,0.0,-2.1488414597916665,12.0,-25.692057071319553,-25.61840226376983,-25.53984077048527,-25.44929546275592,-25.34225940084449,-25.140377622421035,-24.564688833798655,-23.95318829054375,-23.324722852200054,-22.681763369311273,-22.026822908465295,-21.359907510785344,-20.68106360402931,-19.990361563419018,-19.287885644282532,-18.573704351970562,-17.847882588624017
mp-29301,Ba4Ga2S7,Monoclinic,P2_1/m,True,0.003458971538459643,-1.871092024038461,13.0,-24.08344512823927,-23.94076267158603,-23.791431357208246,-23.62826174466911,-23.446575060888886,-23.168212592919755,-22.514565623104417,-21.815312805321042,-21.10230935899925,-20.375483468305188,-19.634925477149388,-18.88081125692037,-18.113349548673654,-17.332757503600764,-16.539255995308373,-15.73304153672936,-14.914290543092186
mp-1189858,Ba4Hf3S10,Tetragonal,I4/mmm,True,0.021636369117648435,-2.1458032408823517,17.0,-36.42305406889651,-36.33735257219679,-36.24469259598979,-36.134859923056176,-36.00148518219025,-35.73264939186909,-34.92986274610949,-34.07850157971867,-33.20982564562223,-32.32336341132816,-31.418928746786364,-30.4965181617498,-29.556221137223964,-28.59818327667543,-27.62258064320607,-26.62959009121379,-25.61939101422442
mp-14883,Ba4Zr3S10,Tetragonal,I4/mmm,True,0.02901593441172068,-2.107554685,17.0,-35.714818561086034,-35.61542141110381,-35.509743607183054,-35.387586478562426,-35.24251224962103,-34.96251487867115,-34.1489801880656,-33.2871508130728,-32.40124085185338,-31.49491723903454,-30.571908442690273,-29.632182988949136,-28.6757743915678,-27.702756740306086,-26.713228365975844,-25.7072697349354,-24.6849607433794
mp-28252,Ba5(GaS4)2,Orthorhombic,Cmce,True,0.0038241108333343377,-1.9313313248333326,15.0,-28.650844761199746,-28.48012349278023,-28.300594617308764,-28.104234649741308,-27.88571954902804,-27.555837798606774,-26.796325155053868,-25.980360768409817,-25.147912240414247,-24.298986437609997,-23.43375596752326,-22.55247777265513,-21.655432849821445,-20.742901296359577,-19.815160090236674,-18.872450327721126,-17.91498333807476
mp-1096883,Ba5(SnS4)2,Orthorhombic,Cmce,False,0.06497258599999878,-1.7658514868333333,15.0,-26.264977480796574,-26.146595508619335,-25.99079422808944,-25.81593767553921,-25.618362171633095,-25.308932895668335,-24.56943949860906,-23.773102587717062,-22.95992500337011,-22.129942632165974,-21.283355028824715,-20.42043986445809,-19.541496791631523,-18.64682456343199,-17.736710522131983,-16.81141441974949,-15.871151731268471
mp-557032,Ba5Hf4S13,Tetragonal,I4/mmm,True,0.025942471704557768,-2.135079201022726,22.0,-46.90294192455083,-46.79282192316721,-46.674143532216334,-46.53356581027488,-46.36281135172523,-46.01633911574166,-44.976047869601956,-43.874605894328305,-42.75098873305157,-41.60454144832344,-40.43498844553861,-39.24229804733015,-38.02656547645192,-36.78796388881079,-35.526709333755726,-34.24302275603877,-32.93713170901658
mp-554688,Ba6Hf5S16,Tetragonal,I4/mmm,True,0.02902676259260417,-2.1279539866666655,27.0,-57.37313673070649,-57.2386929897643,-57.09409094919491,-56.922862943370916,-56.714823532262876,-56.290809615742205,-55.01310853434773,-53.66168051531662,-52.28321689198492,-50.876879321948074,-49.44230274604552,-47.9794272997905,-46.48835394768521,-44.96928339807681,-43.42247168656138,-41.84818384824509,-40.2466955963154
mp-685968,Ba6Nb5S17,Triclinic,P1,False,0.018042720487637887,-1.7422966711607129,28.0,-48.625949710998384,-48.46837663672242,-48.30193879586141,-48.10984685209342,-47.881743532046514,-47.42747060807628,-46.069490767129984,-44.63976270963865,-43.18481206031616,-41.70368357604342,-40.19590226971751,-38.66131018982407,-37.0999275712029,-35.51185367305815,-33.89726298063725,-32.25633917766085,-30.589239921040843
mp-562764,Ba7B4S13,Monoclinic,C2/c,True,0.0,-1.7581831749652785,24.0,-41.9203174511709,-41.772437350760434,-41.62033749446821,-41.44772857797585,-41.24435196873833,-40.864010256994455,-39.78853211204246,-38.63335148181876,-37.45376793087906,-36.24933527618371,-35.01998196733071,-33.765841867154165,-32.48715241322925,-31.184193755906335,-29.85728520648412,-28.506704730216597,-27.132716349139557
mp-1096868,Ba7Sn3S13,Orthorhombic,Pnma,False,0.003655759347823029,-1.754107862065217,23.0,-40.08857623783838,-39.92523816209033,-39.70605462143245,-39.45838181496104,-39.176688055667114,-38.71620377105302,-37.559665353915726,-36.323112310712574,-35.06225969437997,-33.77696218901242,-32.46736751557159,-31.133774473688497,-29.776545278898478,-28.396061012479564,-26.992703362114284,-25.56682646228947,-24.11872999508909
mp-1195594,Ba8Sn4S15,Orthorhombic,Pca2_1,True,0.0,-1.7315744646296283,27.0,-46.45804704875077,-46.26958217239266,-46.01006559328767,-45.71748888817774,-45.38557603300476,-44.847100498091535,-43.50510207254403,-42.070993540991736,-40.6084004752534,-39.1171307473619,-37.59734528665234,-36.049385845469544,-34.47367312713524,-32.87065502867878,-31.24077984356012,-29.584469107896012,-27.902079894670752
mp-675219,Ba9(LaS6)2,Monoclinic,C2/m,False,0.034004247391303366,-2.330761523043478,23.0,-53.34589169916966,-53.1848426508827,-53.0053539520612,-52.79596644190097,-52.54916677821347,-52.13127934092883,-51.065214643173654,-49.89797348072486,-48.697136999693946,-47.4555582777081,-46.18614919596114,-44.88957596870815,-43.56649153024898,-42.21748994833632,-40.84313480421119,-39.44389734901077,-38.02017209821278
mp-673874,Ba9(NdS6)2,Monoclinic,C2/m,False,0.04488978673912758,-2.2982097728260857,23.0,-52.46807142730024,-52.27387652816173,-52.06080875052581,-51.81707313009545,-51.53440387611506,-51.07904452693311,-49.97379573403971,-48.76552770296459,-47.522447583861315,-46.246325902665134,-44.930114961360616,-43.58459860906838,-42.21056658891868,-40.80873941318923,-39.37979467047977,-37.92429689067541,-36.44273386800189
mp-555262,Ba9Fe4S15,Orthorhombic,Pnma,True,0.05469787544642912,-1.732172558392856,28.0,-48.14160584507702,-47.937642354332084,-47.71615368346632,-47.46037640692111,-47.1588815821532,-46.64276506246331,-45.31317637731316,-43.87492182002383,-42.389915935866824,-40.87201511047361,-39.3214035265604,-37.738455957906964,-36.12360410227478,-34.477295459527156,-32.79997813257229,-31.057419056413437,-29.28303079805213
mp-29682,BaAg8S5,Monoclinic,P2_1/m,True,0.011834407857140405,-0.52087439470238,14.0,-7.15463163513585,-7.089055574238725,-7.034305978574747,-6.976236508738725,-6.906961889707132,-6.76751742958861,-6.356575006654962,-5.924088682216686,-5.47662178166383,-4.9628817899301065,-4.4062822991250155,-3.8327574443376307,-3.2425964019089335,-2.6361537711254,-2.0138005174692246,-1.3759067643988985,-0.7228526825479129
mp-8258,BaAl4S7,Orthorhombic,Pmn2_1,True,0.0,-1.5914938418749986,12.0,-19.064932328313407,-19.01189908926482,-18.960700108669613,-18.901940799145496,-18.830142049115004,-18.665754928273895,-18.0970835209733,-17.495029752210083,-16.88265253521512,-16.25941914484676,-15.625071232446984,-14.979513268946764,-14.322764734910145,-13.654906369864264,-12.976061813497445,-12.286390777047352,-11.586055587124978
mp-8885,BaCdS2,Orthorhombic,Pnma,True,0.020061930000003336,-1.5828587768749989,4.0,-6.263271896653378,-6.231329862337484,-6.197549471202306,-6.1496558039561435,-6.096267636987196,-6.014943559573926,-5.82600666020545,-5.565093470409376,-5.261286712001114,-4.9539125324464495,-4.642930245731083,-4.328340310916959,-4.010164940721841,-3.688433639397781,-3.36318917482002,-3.034466819271863,-2.7023063443346036
mp-557882,BaCr4S7,Monoclinic,P2_1/c,True,0.02341345774999848,-1.2282817585416659,12.0,-14.78002275661672,-14.746428586594,-14.715269804733946,-14.677139386487863,-14.626599677499613,-14.484230264851082,-13.969991967100793,-13.438328192377703,-12.895781296934896,-12.341283757475605,-11.774067301519436,-11.193547204785665,-10.599266189793049,-9.990848966634108,-9.367975582728928,-8.730370448491207,-8.077760589707989
mp-1078516,BaCrS2,Tetragonal,P4/nmm,False,0.06170335824999906,-1.5345960399999994,4.0,-6.114567628255912,-6.094527416330047,-6.07374228179747,-6.049437227634189,-6.019888489937171,-5.962482610516353,-5.797393431864071,-5.619870896919031,-5.437712553635419,-5.250763801176177,-5.058931095569813,-4.862154782907339,-4.660391780782926,-4.4536073347555645,-4.241770626132633,-4.024850595643316,-3.802807209717841
mp-27424,BaCu4S3,Orthorhombic,Cmcm,True,0.0,-0.8236870909374989,8.0,-6.488504415043018,-6.4444024667658475,-6.404986762822851,-6.362738091152883,-6.313411908869808,-6.222045071164219,-5.968203794398715,-5.698648523086769,-5.420712965356269,-5.133859386600522,-4.82072859958649,-4.474806001890821,-4.119529810730157,-3.755096361654253,-3.381710898140179,-2.999572482140671,-2.6088803645449037
mp-1147715,BaCuS2,Tetragonal,P4/nmm,False,0.0,-1.3875049512499915,4.0,-5.480327877842566,-5.448670866604752,-5.416301062106757,-5.38051083530925,-5.339635498849589,-5.271113416064381,-5.095169214542083,-4.907104658748068,-4.714759790288384,-4.518005919089302,-4.312528119617432,-4.096732820774583,-3.876516723540947,-3.6519642629868363,-3.4231617370698872,-3.1901879481558026,-2.953116870033476
mp-1228016,BaEuS2,Tetragonal,P4/mmm,False,0.07656844249999928,-2.283446950000001,4.0,-8.991623994846139,-8.940873473869791,-8.889051554668763,-8.83360089063104,-8.772960437447306,-8.68465043646629,-8.488963919691653,-8.281053405591969,-8.066912016563055,-7.8482217066727555,-7.625018485766233,-7.3973670715984925,-7.165344607705558,-6.929032419866147,-6.583707768363643,-6.241647206509494,-5.896146452405178
mp-22739,BaFe2S3,Orthorhombic,Cmcm,True,0.05542997833333274,-1.2255715229166657,6.0,-7.304889560952464,-7.271607929011751,-7.237649914352865,-7.197957545459095,-7.149313990281149,-7.057014483620265,-6.800278694744302,-6.527285471315194,-6.240754092200536,-5.947443898306728,-5.647232711210869,-5.340075616562398,-5.025969658369313,-4.70494199190588,-4.377034485728505,-4.024983366912711,-3.6653767687593373
mp-4309,BaGa4S7,Orthorhombic,Pmn2_1,True,0.0,-1.2580735247916663,12.0,-14.937703821684115,-14.792037191598823,-14.648184091356253,-14.497603952333503,-14.335456104161572,-14.08279274624552,-13.459985123635025,-12.821887070950204,-12.175422350880396,-11.519896555120777,-10.85491452618293,-10.180260509055973,-9.495846195528486,-8.801665264962821,-8.097766734048918,-7.384231545303898,-6.66116813095104
mp-28710,BaGe2S5,Cubic,Fd-3m,True,0.0,-1.1454271831250038,8.0,-9.24019216463574,-9.227331471895084,-9.214571854809533,-9.196527075355355,-9.17001389551246,-9.078814053095677,-8.72330218028354,-8.354476686039954,-7.979571781161614,-7.541469951801528,-7.090152011763095,-6.632097088218234,-6.167271356097224,-5.695689775606493,-5.2173969434904635,-4.73245511287149,-4.24093605368315
mp-1195469,BaGeS3,Monoclinic,P2_1/c,True,0.0,-1.4327223632499995,5.0,-7.1730818234369025,-7.155199476405636,-7.136288292538223,-7.113238130519175,-7.084134737353407,-7.015342580141148,-6.787221212088502,-6.547020085758575,-6.3024124977047125,-6.024879032191782,-5.739451227929299,-5.449409184059514,-5.154772115927728,-4.855578976710076,-4.551880116959001,-4.243728954903448,-3.931178832526891