,pretty_formula,crystal_system,spacegroup,experimentally_observed,"energy_above_hull, eV/atom",Ef,total_atoms,Gf_400,Gf_500,Gf_600,Gf_700,Gf_800,Gf_900,Gf_1000,Gf_1100,Gf_1200,Gf_1300,Gf_1400,Gf_1500,Gf_1600,Gf_1700,Gf_1800,Gf_1900,Gf_2000
mp-554310,TlBiS2,Trigonal,R-3m,True,0.0,-0.6742791845833356,4.0,-2.6586638867608636,-2.636223339760525,-2.600747876890273,-2.5479151103399835,-2.491533224177808,-2.4088788985771625,-2.219920762784801,-2.0284344373058882,-1.83402966888199,-1.6364720515249864,-1.4356224383199212,-1.2314035560387424,-1.0237899415946892,-0.8127872613375455,-0.5458922915376361,-0.2312731748726371,0.13671099282887234
mp-542443,TlCr3S5,Monoclinic,C2/m,True,0.0,-0.9475606245370377,9.0,-8.542473484921162,-8.516213611584629,-8.491806449241055,-8.457956692167429,-8.416260297658518,-8.309584199379625,-7.937541442715667,-7.559242295324759,-7.173395410700278,-6.779080309089235,-6.375634114627998,-5.962552341213353,-5.539448371098143,-5.106013400996453,-4.60946186352988,-4.057709572597727,-3.495381952486639
mp-541823,TlCr5S8,Monoclinic,C2/m,True,0.0,-0.9722336680952363,14.0,-13.691602347060115,-13.664163629360576,-13.640874691399027,-13.60615373748174,-13.559200531710438,-13.408698203098567,-12.834067969193459,-12.249891553636557,-11.654092596892786,-11.045177516372398,-10.422058168163758,-9.783897168467007,-9.130043132914185,-8.459968140192725,-7.720698594454035,-6.919990223136509,-6.102314506403616
mp-9630,TlCrS2,Trigonal,R3m,True,0.01632666976852004,-0.8205427370833327,4.0,-3.222696649669883,-3.195615862418282,-3.1680907174146102,-3.1331123989065746,-3.09467305738198,-3.029823431157995,-2.858368393457118,-2.6839467559541297,-2.5060521851708684,-2.3243373041910944,-2.1385645051991915,-1.948562199788583,-1.754208536832916,-1.555413831072915,-1.2995805436003849,-0.9947845747755366,-0.6858052930081833
mp-13829,TlCu3S2,Monoclinic,C2/m,True,0.0008334533333336225,-0.3768608363888906,6.0,-2.176892766358926,-2.1446333990485607,-2.1159148848597935,-2.0808577774352597,-2.041952867672238,-1.9754100403175587,-1.8005463891092042,-1.620709958993661,-1.4352029173704182,-1.243502126004043,-1.0325015229664203,-0.7972492135473574,-0.5552802010231241,-0.3067144012007148,0.000839856255518967,0.35911076879200543,0.7231187432954922
mp-8159,TlCu4S3,Tetragonal,P4/mmm,True,0.0010116991406254883,-0.3964721138541667,8.0,-3.0865733437544662,-3.048292448225926,-3.014998361886202,-2.974938053945846,-2.929582895909562,-2.8436339394751715,-2.5962884317354415,-2.3426956859399137,-2.0818855287841327,-1.8131274495822183,-1.5189181972570154,-1.19263123488758,-0.85762601097003,-0.5140439302358537,-0.1095235159465453,0.3476292103141265,0.8123955956774047
mp-21964,TlCu7S4,Tetragonal,P4/n,True,0.013839549895830139,-0.32729172256944494,12.0,-3.8477205012732947,-3.8061756144099945,-3.7750165743298707,-3.7376787672216514,-3.6930537090665503,-3.593440943416379,-3.2773793061380427,-2.9514767905291848,-2.614256889807189,-2.2645800487532046,-1.871898754590438,-1.424665439072779,-0.9637810669328033,-0.48949894338143096,0.05042346280039922,0.6475598704419028,1.256766349574015
mp-14089,TlCuS2,Tetragonal,I-42d,True,0.001781702916666461,-0.47122656583333367,4.0,-1.8149818373083022,-1.7851405677576837,-1.7548870698015264,-1.7172798956721964,-1.6763702723978926,-1.609260759822447,-1.435807016264488,-1.2596996749254563,-1.080474895979055,-0.897811213272373,-0.7072496374278963,-0.5070846628498469,-0.30313422179788674,-0.09542781852407067,0.16851496922954556,0.4805083794662286,0.7956590364175025
mp-1103174,TlFe2S3,Orthorhombic,Cmcm,True,0.06235494601851954,-0.6540329776388898,6.0,-3.892590914466714,-3.865416305225331,-3.837865878120418,-3.8006478429069617,-3.7562612819265047,-3.6696656264875185,-3.41971157658803,-3.1629668486260414,-2.893846840036799,-2.618918115647526,-2.3379144331911936,-2.0506789438196567,-1.7571299228203836,-1.45723959464938,-1.0984831076474713,-0.6717036485212144,-0.23830875255102768
mp-3849,TlFeS2,Monoclinic,C2/m,True,0.07707342652777882,-0.6190284070833343,4.0,-2.4285278277748175,-2.403709210134176,-2.37777359132539,-2.34354114455818,-2.304796734213701,-2.238325772392612,-2.0635413615758473,-1.884672042411601,-1.6988297640563177,-1.5092407620723827,-1.3157410152120388,-1.1182366673587039,-0.9166835996760163,-0.7110719320557628,-0.4488839307408057,-0.12961696056770222,0.1935980528168626
mp-4016,TlGaS2,Monoclinic,C2/c,True,0.0,-0.884232564895834,4.0,-3.4490993311368356,-3.3994000295446174,-3.3491009056203414,-3.2914097575931645,-3.2304679819476756,-3.143444470081833,-2.95024670184093,-2.754616095522537,-2.5561416692575483,-2.3545693248777173,-2.1497547333154206,-1.9416185484815394,-1.7301311615671793,-1.515295129630525,-1.244605156080838,-0.9262262743041889,-0.6050332043194508
mp-3075,TlGeS2,Orthorhombic,Pnma,True,0.0,-0.6401156464583342,4.0,-2.547788721283485,-2.5326174015279976,-2.5172483944873525,-2.4947423252549825,-2.469140056553755,-2.4175327474916344,-2.2597615463597855,-2.09949221202685,-1.9362495039306662,-1.7414277666661064,-1.5399881279723076,-1.3351502001474653,-1.1268885201048162,-0.915210827055212,-0.6476149336995132,-0.33227001914592513,-0.014052876274385895
mp-572596,TlIn3S5,Monoclinic,C2/m,True,0.0008941451388890798,-0.8057882839814828,9.0,-7.073699312654117,-6.978780742357795,-6.876582893626022,-6.763745372898301,-6.642510870122141,-6.4562717892432016,-6.005092022928364,-5.548473609577302,-5.085476552634168,-4.615528613005136,-4.138296499736157,-3.653589765175578,-3.161345157902627,-2.66155547591654,-2.10174297170731,-1.4901219511678008,-0.8716163305782452
mp-505747,TlIn5S6,Monoclinic,P2_1/m,True,0.0,-0.7592867443055464,12.0,-8.864223915353271,-8.733556252517058,-8.592879556430853,-8.440646055279553,-8.277611803573677,-8.035460705128289,-7.474066518337109,-6.904718793216444,-6.326237442116186,-5.737922356363576,-5.13938200597708,-4.530405299883206,-3.9109479781681955,-3.281032222034078,-2.5882258334741834,-1.8407996290793456,-1.0837306735027354
mp-562480,TlIn5S7,Monoclinic,P2_1/m,True,0.0,-0.7924757795512818,13.0,-10.02456077734256,-9.879918150572774,-9.724735905856654,-9.557061686241873,-9.377412344911829,-9.106409290181077,-8.464075716088452,-7.813673735080794,-7.153867915191153,-6.483851611337592,-5.80315964066482,-5.1115294644458125,-4.408882732478361,-3.695217909111502,-2.9180886139745787,-2.085756862410186,-1.2431956701546305
mp-1216612,TlIn5S8,Monoclinic,Cm,False,0.002579463214284594,-0.8126696940476188,14.0,-11.12364909815991,-10.9786077771636,-10.822496253524605,-10.652957585153372,-10.470269423906204,-10.183990682597134,-9.474293990910109,-8.756414023722503,-8.02886000475052,-7.290718752503037,-6.541451431251037,-5.78074405461394,-5.008484182101089,-4.224646561208527,-3.376770629201623,-2.4731096001747304,-1.5586324409472567
mp-20042,TlInS2,Hexagonal,P6_3/mmc,True,0.0,-0.7766988806250015,4.0,-2.9972108030388904,-2.950784770540196,-2.9008703838132956,-2.8431037978267333,-2.781692740619226,-2.693863107268063,-2.4995700534230627,-2.3025829810061946,-2.102512673189552,-1.899127833276621,-1.692300715088308,-1.4819644097018916,-1.2681048547664773,-1.0507328987845188,-0.7773536094706053,-0.45614238451614497,-0.13197808966213742
mp-9272,TlPt2S3,Trigonal,P-3m1,True,0.0,-0.6912206001388933,6.0,-4.183713135990908,-4.173778100264281,-4.16446636570817,-4.147023013093785,-4.12452130727808,-4.062586067971874,-3.8409945640699084,-3.6152822271590797,-3.3847729896800756,-3.149037510360724,-2.9078199112393266,-2.660965416328807,-2.40839851949983,-2.1500955909305404,-1.8335400704060234,-1.4668938988433382,-1.0950376902398027
mp-27515,TlSb3S5,Monoclinic,P2_1/c,True,0.0,-0.5603921642592593,9.0,-5.086320105910991,-5.06594840492072,-5.047196218053431,-5.018945469207292,-4.982816990009869,-4.881621746877675,-4.449261016526918,-4.0080103254642365,-3.559734258156743,-3.1039072148846003,-2.6402425440677586,-2.168596437428562,-1.688933627170627,-1.2012748949176064,-0.6531766953670761,-0.12146451749735476,0.6123304777618941
mp-3267,TlSb5S8,Monoclinic,Pc,True,0.0013783124999990903,-0.5552877809523805,14.0,-7.884710929480505,-7.862855764842399,-7.84476171849232,-7.815142377438505,-7.7732389630040135,-7.6276413254543005,-6.948251067888858,-6.254925345363333,-5.550847683298866,-4.835182632494313,-4.107469089510651,-3.3674708002573084,-2.6151219636176037,-1.8504439664615973,-1.0210332497339714,-0.24949499933816807,0.8581897434906729
mp-28230,TlSbS2,Triclinic,P-1,False,0.0,-0.5847535498958338,4.0,-2.3113075834609687,-2.2917678773359054,-2.2717060811687793,-2.244172455747691,-2.2131674430047092,-2.155723125507408,-1.9697404535887157,-1.7799133252062544,-1.586787383873105,-1.39014687935075,-1.189879611918096,-0.9859342191104199,-0.7783059664516276,-0.56701503031897,-0.29957787916290357,-0.007040305036650096,0.3535164114356384
mp-1104896,TlV5S8,Monoclinic,C2/m,True,0.05728470809523767,-1.1814343145238095,14.0,-16.48568567063906,-16.422313876000782,-16.3622471702159,-16.290354604872647,-16.206219423370044,-16.018820137423504,-15.407862982977027,-14.788204337763347,-14.15801658557537,-13.516075615761991,-12.861542027739546,-12.193837545341498,-11.512590620443863,-10.81756353228338,-10.056083249866095,-9.236185336874374,-8.402631474021
mp-1216740,Tm(CuS)3,Trigonal,R-3,False,0.0,-1.000875158348214,7.0,-6.8504206332381505,-6.793930867746224,-6.743485002850348,-6.692068945388323,-6.635833854811646,-6.539744708592783,-6.283148846603502,-6.021282925347634,-5.753236764228493,-5.478331976366409,-5.183350499029787,-4.863258933369433,-4.535532281609829,-4.200242904802721,-3.8574946667847136,-3.4994641305546867,-3.1323239175748903
mp-1103493,Tm(Mo3S4)2,Trigonal,R-3,True,0.02549651170832945,-0.998825905749997,15.0,-15.104620370766616,-15.088233247791699,-15.081303533052196,-15.070275275317599,-15.047744317457873,-14.922073895463015,-14.372612866391371,-13.814015220932198,-13.244367439407302,-12.662367376596041,-12.067153282352425,-11.458129116848689,-10.834903233484592,-10.197198129970626,-9.544825426964504,-8.869717157149609,-8.17782543851143
mp-4324,Tm2CdS4,Cubic,Fd-3m,True,0.0,-1.9529908514285736,7.0,-13.440016704577138,-13.356317005974189,-13.274758010579097,-13.17989840856386,-13.078703475563831,-12.925580071209332,-12.560368876305951,-12.130789316699907,-11.657159381976406,-11.178294388940287,-10.693797438771444,-10.203414632024739,-9.706996987922103,-9.204455702567378,-8.695761458473644,-8.1650263526606,-7.624353980317
mp-1196179,Tm2CrS4,Orthorhombic,Pca2_1,True,0.06040752029762064,-1.8718402432142867,7.0,-12.840108893500137,-12.749260959117336,-12.661647162154967,-12.571326115052731,-12.474920553154748,-12.326665288622824,-11.966251756265759,-11.601012793340868,-11.229981215572135,-10.852491591461556,-10.468094164231832,-10.076474921466895,-9.67741958726509,-9.27077509903718,-8.8564385527284,-8.418455713804311,-7.968850372302615
mp-1232279,Tm2MgS4,Cubic,Fd-3m,False,0.0,-2.1751187585714318,7.0,-14.91859215919532,-14.816203739273217,-14.716831806359561,-14.614554665074186,-14.506009560788687,-14.345434414956461,-13.965135058406412,-13.577558076646886,-13.184084836990195,-12.784207445379383,-12.346372864734523,-11.836830797206567,-11.321253892322684,-10.799554382617247,-10.271699841311728,-9.721806511147971,-9.161973841592589
mp-33889,Tm2MnS4,Tetragonal,I-42d,False,0.09979588660713734,-1.8250268989901497,7.0,-12.46918527963635,-12.366281672710183,-12.265748856570255,-12.161673427280668,-12.050715431684738,-11.887157357748796,-11.510271922346211,-11.12607051380442,-10.735614242400963,-10.338388995495682,-9.933428873905735,-9.518714936987852,-9.089403173648389,-8.650769344431243,-8.204442420702687,-7.734621559647216,-7.2534849794519785
mp-1217268,Tm2PbS4,Orthorhombic,Cmc2_1,False,0.003385819107140975,-1.916357861785715,7.0,-13.192843359608394,-13.111225896198814,-13.032338864970509,-12.942083133636022,-12.845351116764224,-12.696649171316627,-12.335858398889618,-11.970481611347955,-11.599701906842961,-11.222993771998603,-10.840025603118375,-10.450590140131135,-10.054573640896955,-9.651916321574591,-9.242607520426724,-8.810780063083726,-8.368548945470213
mp-1216554,Tm2TeS2,Orthorhombic,Immm,False,0.0,-2.1357338331249993,5.0,-10.476964046531357,-10.413651756868646,-10.35455704172907,-10.294604687506105,-10.211053369639147,-10.093275276635886,-9.8670194004753,-9.636024803504394,-9.399829839021091,-9.158134503634141,-8.85266671372835,-8.557039780862404,-8.256350393563965,-7.950562363795504,-7.639674220582805,-7.307819809164192,-6.967106676840036
mp-17043,Tm2ZnS4,Orthorhombic,Pnma,True,0.016672057678567498,-1.9829518803571453,7.0,-13.610273462886447,-13.516995058246966,-13.426681319089269,-13.33259176991194,-13.221895863165376,-13.059053834652353,-12.683930203080742,-12.304015343148896,-11.899758871119754,-11.40754774705876,-10.90970570229558,-10.405977800954538,-9.896214025827028,-9.38032764587797,-8.858287270759364,-8.314207070351983,-7.760188566983511
mp-1208101,Tm3CrS6,Orthorhombic,Pnnm,False,0.019514755437499254,-2.0093453962500005,10.0,-19.647106143700807,-19.497420900890553,-19.35161465850242,-19.201543518835727,-19.0425612322096,-18.8062690964043,-18.252364297326277,-17.691957648688557,-17.123678119096617,-16.546590934705733,-15.96007253770666,-15.3636965481593,-14.757182176150021,-14.140336819661918,-13.513042492957364,-12.851401264913786,-12.173484269930846
mp-1203475,Tm3InS6,Orthorhombic,P2_12_12,True,0.04213461087499937,-1.9289686506250034,10.0,-18.868660703498296,-18.718488324652224,-18.569150949752146,-18.415149651818208,-18.25205375872045,-18.011639724999256,-17.45375501898839,-16.889641044648066,-16.318043887234026,-15.738144853121263,-15.149430246137062,-14.551578365825176,-13.944416211047436,-13.32785171354865,-12.701869494213998,-12.042671119252084,-11.368427220393777
mp-1216548,Tm4CdS7,Monoclinic,Cm,False,0.0671683955208433,-2.061331852291669,12.0,-24.238114310920345,-24.068163463878804,-23.902173630744862,-23.72070306654697,-23.52841827819756,-23.24552159206444,-22.591715755503344,-21.870303584841388,-21.10095071974361,-20.32204032873059,-19.532901563792084,-18.73310723808841,-17.922409433106054,-17.10066398294643,-16.267825589120942,-15.392127756721223,-14.497772818576841
mp-1216704,Tm4CrS7,Monoclinic,Cm,False,0.07054675090277929,-2.045853362291668,12.0,-23.99068619225083,-23.806128938156316,-23.62662613218196,-23.442235951623942,-23.24728236310346,-22.961795645519782,-22.305329300231868,-21.640799554977946,-20.966586875561802,-20.2815936822012,-19.58509626892869,-18.876607335933663,-18.155813669578997,-17.42250684527306,-16.676567977959394,-15.8861642411755,-15.075418162599902
mp-1216547,Tm4MgS7,Monoclinic,Cm,False,0.03467370677083004,-2.223401153541668,12.0,-25.982918184924927,-25.763351655160825,-25.548621923104925,-25.328806858233506,-25.09824493719523,-24.77696954818098,-24.07714858856981,-23.36681203435099,-22.646688902916615,-21.915839151925518,-21.14243579510759,-20.29255524721928,-19.431771220052273,-18.55994058413853,-17.677014931697876,-16.751231913544036,-15.806789716784479
mp-1216628,Tm4MnS7,Monoclinic,Cm,False,0.03893875812499825,-2.0731301179525885,12.0,-24.303841550211818,-24.114494747155135,-23.929339045584413,-23.738460606420233,-23.53622070778299,-23.24269730437649,-22.577025179624254,-21.900799112334617,-21.214427862864945,-20.516965170290835,-19.807171186239287,-19.082853682672514,-18.339069710761386,-17.581039669047392,-16.810376547895153,-15.995400912561074,-15.16038971887312
mp-1079656,TmAgS2,Tetragonal,I4_1md,True,0.004147018593748442,-1.5279225751562535,4.0,-5.988110530993454,-5.944617564733826,-5.903657905644135,-5.861567299302867,-5.816291360466881,-5.744738836470292,-5.566631686092942,-5.385568300218813,-5.201028871772811,-5.006375926932441,-4.804388907164359,-4.598212801768369,-4.3878252569493075,-4.173235048348561,-3.9544735431055003,-3.723642137771458,-3.4868333582418662
mp-1102079,TmAsS,Orthorhombic,Pnma,True,0.0,-1.7504531459375012,3.0,-5.115415459201772,-5.075419628838863,-5.038579932659697,-5.001618045630384,-4.9627167109738295,-4.909855462968926,-4.802626516930534,-4.692673320631169,-4.5796521399232395,-4.463348045063029,-4.3436665219543835,-4.153058295781982,-3.953960350486904,-3.752181205925286,-3.5477109625669643,-3.332609033115377,-3.1129269076546358
mp-12455,TmCuS2,Orthorhombic,Pnma,True,0.0,-1.5909293651562528,4.0,-6.225869282445572,-6.179048111286885,-6.134848343893464,-6.0895984708300555,-6.04124928900619,-5.966720946491847,-5.7857499120943325,-5.601942868141895,-5.414778971128909,-5.223888042667401,-5.024772745450125,-4.815697517395838,-4.60245438000088,-4.38504899961503,-4.163510670516597,-3.9299387163958475,-3.6904235902871445
mp-1066791,TmTlS2,Trigonal,R-3m,True,0.0,-1.7314058020833376,4.0,-6.787927966916,-6.740362265787605,-6.6921138278844925,-6.636316864867958,-6.577012239460867,-6.491240325675058,-6.298832943926894,-6.103484873139947,-5.904756111390189,-5.702369759037635,-5.4961638676956,-5.286046654108565,-5.071979181592836,-4.853953642901265,-4.579458522859914,-4.248710469095412,-3.9126151908995705
mp-1216843,V(CrS2)2,Monoclinic,Cm,False,0.010735996031749018,-1.071786115714284,7.0,-7.471364279448151,-7.439833941987301,-7.411845561815256,-7.381261866000935,-7.344684861277798,-7.2564291649587,-6.956189321144044,-6.651241163411817,-6.340534593043354,-6.023317118375845,-5.699037412439738,-5.367273674043503,-5.027701765648969,-4.680062908752507,-4.324142264801756,-3.9597600719782484,-3.5867454786655433
mp-1216724,V(FeS2)2,Monoclinic,Cm,False,0.08108822999999887,-0.9014032428571416,7.0,-6.200381557445869,-6.147855657153906,-6.097526427318598,-6.042914572932893,-5.980207528516953,-5.863189258950613,-5.530770766851148,-5.191407343743369,-4.839285456177828,-4.480799837448961,-4.115546333722938,-3.743258608388218,-3.363767988486609,-2.976975305816607,-2.5828253321279657,-2.1639812345549156,-1.7369752759547552
mp-1192730,V(MoS2)2,Monoclinic,C2/c,False,0.09790391250000141,-1.041111650357143,7.0,-7.26553486728534,-7.236175151416856,-7.210467254473701,-7.18237132799492,-7.148601313211554,-7.063592053378329,-6.767160391398566,-6.466708605375303,-6.161313041114932,-5.850343505757567,-5.533370971136583,-5.210093862002299,-4.88031033961947,-4.54387770570419,-4.200697201923818,-3.850698928096424,-3.4938301856863383
mp-1077935,V2CoS4,Monoclinic,C2/m,True,0.048646005476189025,-1.0936636442857153,7.0,-7.549687296023498,-7.49834202060538,-7.449958301377446,-7.398456905518488,-7.3399288795090625,-7.229325209009445,-6.90635702100857,-6.5782960033622935,-6.24405267299168,-5.9027916237912645,-5.553779117017648,-5.196979940068195,-4.832829658985604,-4.461346222218623,-4.079485335859127,-3.683793154034147,-3.2807402719842553
mp-1078077,V2CrS4,Monoclinic,C2/m,True,0.03476117015872848,-1.1847588642857139,7.0,-8.220568447291885,-8.178186512725276,-8.139177597270548,-8.097494597453021,-8.049816215865606,-7.950516146361563,-7.63934593672062,-7.323636351339021,-7.002387040163702,-6.674899405919579,-6.340671870302701,-5.999334453648194,-5.65061898566668,-5.2943247279643995,-4.930296954959912,-4.558411872083553,-4.178556667828737
mp-2221507,V2CuS4,Cubic,F-43m,False,0.06835779071428938,-1.0527896592857136,7.0,-7.308929211044008,-7.269435625706809,-7.233347188828023,-7.194684164917628,-7.150184333108933,-7.054273208781858,-6.7467531248122565,-6.435006667123046,-6.118075979313012,-5.79528837487041,-5.461920893929383,-5.116069639635862,-4.763406225086484,-4.4038491013988175,-4.037360659641665,-3.663926966881906,-3.283549218971597
mp-561419,V2FeS4,Monoclinic,C2/m,True,0.07275180928571423,-1.0967529057142846,7.0,-7.5730962004153,-7.5221466767142715,-7.473897528709051,-7.422130641886972,-7.363317432734297,-7.251566268887769,-6.926236927385562,-6.595249901597329,-6.255223124104609,-5.90903161011095,-5.5562473678802515,-5.196578150037639,-4.829833518583728,-4.455892540275817,-4.0746802946835246,-3.6774944517135317,-3.272573757096131