,pretty_formula,crystal_system,spacegroup,experimentally_observed,"energy_above_hull, eV/atom",Ef,total_atoms,Gf_400,Gf_500,Gf_600,Gf_700,Gf_800,Gf_900,Gf_1000,Gf_1100,Gf_1200,Gf_1300,Gf_1400,Gf_1500,Gf_1600,Gf_1700,Gf_1800,Gf_1900,Gf_2000
mp-1190981,Sr2ZnS3,Orthorhombic,Pnma,True,0.040342723452381435,-1.8967359998586322,6.0,-11.232879086343756,-11.176389033433214,-11.122759935214464,-11.065523238215043,-10.992112470545269,-10.876680202343483,-10.600726250050684,-10.312741426919304,-9.992207202831086,-9.582986095352021,-9.167680701931094,-8.746257508953624,-8.318749835496261,-7.864660402983457,-7.258176283889318,-6.648024273771522,-6.034200289524206
mp-30239,Sr3(BS3)2,Monoclinic,C2/c,True,0.0,-1.6674627775757571,11.0,-18.221895812948496,-18.16181733398618,-18.1097594995935,-18.054904044064756,-17.99132804942817,-17.84784932506306,-17.38642259222558,-16.90738883186834,-16.40757374373213,-15.897043961803057,-15.375483163619116,-14.842746734003097,-14.29882709440603,-13.712945144178462,-12.896367896438669,-12.072179342762556,-11.24037899336215
mp-1218367,Sr3CaS4,Orthorhombic,Cmmm,False,0.013875813750001242,-2.4134082164062516,8.0,-19.10172542586379,-19.023799792304512,-18.949372653688307,-18.870829446344977,-18.782889196855134,-18.638117391802865,-18.278679615328134,-17.901112961164507,-17.496152702449976,-17.080269447843634,-16.65464212484531,-16.219342128855143,-15.774517528361995,-15.289498202989835,-14.55456816493625,-13.74861020937676,-12.93774834234383
mp-1218560,Sr3PbS4,Orthorhombic,Pmmm,False,0.0,-1.9908093099999982,8.0,-15.763946762928336,-15.69646852944039,-15.632475317298589,-15.55627565968716,-15.472008700303377,-15.331617030980834,-14.977365733190698,-14.606049971869304,-14.215074450636065,-13.814910918223669,-13.40550909551951,-12.986907212146672,-12.559217061525352,-12.091735357502444,-11.39577114207292,-10.694436883418476,-9.987738538133826
mp-29295,Sr3Sb4S9,Orthorhombic,Pna2_1,True,0.0,-1.259023804843749,16.0,-20.025946815414397,-19.939267446129815,-19.859446185039946,-19.772553588693047,-19.670778396885602,-19.448910078925046,-18.661195334002876,-17.847673162769603,-17.008550702681184,-16.153773368599477,-15.282999632200301,-14.396116804157508,-13.49319041565515,-12.543522812871775,-11.358497691032237,-10.252775494609978,-8.875245682526945
mp-1208730,Sr3Sn2S7,Orthorhombic,Pbam,False,0.007990279999988914,-1.4539315603906264,12.0,-17.25147170290171,-17.155556959747273,-17.03506097004544,-16.906520638355673,-16.766207384271148,-16.532419611270086,-15.927620081218253,-15.304375226548917,-14.659539887320925,-14.003215115663735,-13.335122870739188,-12.655156222742384,-11.963346052973233,-11.228953802622346,-10.263275832526425,-9.289441227400864,-8.307476541456804
mp-1218843,Sr3V5S11,Monoclinic,C2/c,False,0.07533640684209697,-1.5590614319736842,19.0,-29.376948896843857,-29.245911300328792,-29.12208129230816,-28.989398432896625,-28.839084078150833,-28.54367455300241,-27.665296070501526,-26.763763949465556,-25.83485598404084,-24.887920734694013,-23.922114323589895,-22.936910092593145,-21.932035514076134,-20.876522270780807,-19.581497487934943,-18.26993743562933,-16.94173512795789
mp-16061,Sr6Sb6S17,Orthorhombic,P2_12_12_1,True,0.0,-1.336372016120688,29.0,-38.56470485007381,-38.40875228636941,-38.26331316549668,-38.103887767167635,-37.916754778625524,-37.50358926363526,-36.05718316548678,-34.56397798179313,-33.02275835787855,-31.453511900129694,-29.855582698009663,-28.228734923371988,-26.573061991328224,-24.82712055528303,-22.61360965471104,-20.51605287913756,-18.007771168267247
mp-1218330,SrCaS2,Tetragonal,P4/mmm,False,0.029460062500000106,-2.40059862390625,4.0,-9.518047487424122,-9.483859006283005,-9.451452420175226,-9.416941678545156,-9.37708050103642,-9.308946573160057,-9.133208114772755,-8.949818390573078,-8.751133170000426,-8.546579652497567,-8.337331848635168,-8.123413018946902,-7.904886833371867,-7.671549081076863,-7.339481292439076,-6.938832228885206,-6.535732764240413
mp-1218296,SrEuS2,Trigonal,R-3m,False,0.019115117499996614,-2.4241820026562486,4.0,-9.527503083181964,-9.471713197578808,-9.417868963033245,-9.362382820983214,-9.303321648557965,-9.217002391257132,-9.02412228899234,-8.824625278587352,-8.615581851977282,-8.402116985461419,-8.184186883733863,-7.961799260870287,-7.735001203921257,-7.493578137748245,-7.069852459184357,-6.650423155079936,-6.2285475956067256
mp-1208643,SrHfS3,Orthorhombic,Pnma,True,0.0,-2.0739638116875,5.0,-10.330974938214938,-10.301871187382298,-10.274184575771967,-10.243758167229878,-10.208311848782714,-10.133020265278535,-9.898676197886353,-9.657363011176306,-9.40787386489292,-9.153468376311373,-8.893977275725362,-8.629315372335697,-8.359458351405284,-8.074137864457148,-7.710439034288129,-7.342728384791256,-6.971015727867613
mp-34680,SrNd5S8,Tetragonal,I-4,False,0.021379400357147915,-2.3502094689285746,14.0,-32.27578338716991,-32.064216762664465,-31.85516339408502,-31.63623991036344,-31.400402618069165,-31.055223592684037,-30.28062775699454,-29.48733509447522,-28.6626023025429,-27.812660315372078,-26.918078241473765,-26.004041394876786,-25.07095762321817,-24.108990822566277,-23.05568094840174,-21.985807617886742,-20.899803341396712
mp-1218031,SrPb3S4,Trigonal,R-3m,False,0.00629024374999787,-1.17969244375,8.0,-9.199057047333453,-9.11265282149404,-9.029837260054101,-8.91845001502462,-8.799047289749446,-8.625505655437205,-8.23863089936826,-7.842473200211648,-7.435728654031205,-7.0216388701597126,-6.600033343542709,-6.170834223583551,-5.734039296343781,-5.279402341535455,-4.744040557861844,-4.202355214872725,-3.6543916535230814
mp-1218019,SrPbS2,Trigonal,R-3m,False,0.010413342499996148,-1.5779826562500001,4.0,-6.212245649443233,-6.173916929455838,-6.137356630904848,-6.090601800089066,-6.039826273768771,-5.961484842704522,-5.776345224084196,-5.584618753809139,-5.385330631800164,-5.181909197573637,-4.974299255087793,-4.762490899099237,-4.54651152447841,-4.316123754615046,-4.008434149683708,-3.6978211441172633,-3.3842975623031375
mp-1205419,SrSnS3,Orthorhombic,Pnma,True,0.0,-1.2682026126875001,5.0,-6.248580480406636,-6.205338047825384,-6.149375841992997,-6.0898944434678555,-6.025538235312294,-5.921584468997166,-5.658890184384532,-5.3895926404322765,-5.112524381245176,-4.830975080583878,-4.544804488797009,-4.25394710726551,-3.958397277001886,-3.6479021959871627,-3.2595594241845767,-2.8677499955146217,-2.4724889040310476
mp-1080529,SrTiS3,Hexagonal,P6_3/mmc,True,0.08243712100000344,-1.838744033166666,5.0,-9.124855713129964,-9.088253875083222,-9.053017354732125,-9.015053474615671,-8.972143271162,-8.88948937284358,-8.647853467913404,-8.399237042929508,-8.141071387915723,-7.8757641742489,-7.605697824195589,-7.33075398117953,-7.0508730918255,-6.7557432775741315,-6.382407167570392,-6.0051836099027955,-5.619328309616424
mp-558760,SrZrS3,Orthorhombic,Pnma,True,0.0,-2.083627635000002,5.0,-10.364834193357243,-10.332384430892931,-10.301577749507171,-10.268262395198569,-10.23013545352207,-10.152342549270818,-9.91563500639247,-9.67205162294426,-9.418037007082367,-9.158230265121723,-8.893766993397382,-8.624552673235344,-8.35054433414893,-8.061449789758889,-7.694328252098737,-7.323514115714971,-6.9489840267316065
mp-1217790,Ta(Mo2S5)2,Triclinic,P1,False,0.010175616916665575,-1.2284193368222218,15.0,-18.617984956876228,-18.605362017804854,-18.597318008448916,-18.582418550879446,-18.554390233678195,-18.40044067279059,-17.720792436214495,-17.034393446338395,-16.339226540430776,-15.633919095994735,-14.917548213482815,-14.189480541568056,-13.449314069344894,-12.696764039510079,-11.931642072721331,-11.153822368838277,-10.363226056573446
mp-1205503,Ta(SnS)2,Hexagonal,P6_3/mmc,False,0.0808526929999962,-0.796158441466666,5.0,-3.9479971290293134,-3.926074654585517,-3.879944610860119,-3.8311079359800235,-3.7786184030682057,-3.699252460361851,-3.512691835498323,-3.322543964146912,-3.1283264709948693,-2.9297434983730835,-2.7266345862347894,-2.518921280579253,-2.3065953313426544,-2.08968066345839,-1.8682105263751136,-1.642240411182824,-1.4118241780802698
mp-1208493,Ta20Te5S3,Monoclinic,C2/c,False,0.09256463350000033,-0.3557947659821435,28.0,-10.057882050977536,-10.07113969861485,-10.12988714255253,-10.19675568180057,-10.15265715217501,-10.018670305872824,-9.700702924933804,-9.352551301124407,-8.972353226852988,-8.559019759461655,-7.821524012588512,-7.128343055706964,-6.405568015505267,-5.653428741434759,-4.87212925701305,-4.06185842811346,-3.2228060409944277
mp-1217770,Ta2AgS4,Trigonal,P-3m1,False,0.06664608309524223,-1.1184309066190465,7.0,-7.843824822303699,-7.823099524290164,-7.805915147134899,-7.786315793250139,-7.761063079671468,-7.684618796847463,-7.396824662014242,-7.105115082621384,-6.808595424530207,-6.500381673043233,-6.183087760039435,-5.859760817322053,-5.530347215722086,-5.194832774341755,-4.853231705776546,-4.505573607175709,-4.151905277334773
mp-1218020,Ta2FeS4,Trigonal,P-3m1,False,0.08757017095238062,-1.1374558320952366,7.0,-7.894559874637399,-7.852901612905217,-7.814167595864024,-7.772156291889684,-7.723368137523391,-7.6219591762064205,-7.307343079364666,-6.98750045333872,-6.65911141654211,-6.325106951427176,-5.985119179228755,-5.638926329848225,-5.286427098312064,-4.927564810070633,-4.56231429335914,-4.182014675305606,-3.794948231722703
mp-1218110,Ta2InS4,Orthorhombic,Imm2,False,0.0,-1.2518275087619049,7.0,-8.753807316159435,-8.720702795508688,-8.688151166488868,-8.652766879234662,-8.611473233944832,-8.518866757037273,-8.214903173106773,-7.907103949767691,-7.594648039449211,-7.277008892344767,-6.953854904757863,-6.624991253783746,-6.2903466909343475,-5.949885270270698,-5.603604621499734,-5.251521904604331,-4.8936673354914735
mp-1218002,Ta2MoS6,Monoclinic,Cm,False,0.02118716138887855,-1.3028541332962955,9.0,-11.792924924124074,-11.772921358446137,-11.755508442300837,-11.733895197062626,-11.704366909973931,-11.599280072662443,-11.178800147987294,-10.754326360439263,-10.324673079426123,-9.889045751504664,-9.446916754995858,-8.997943805174932,-8.541940833602919,-8.078781966983007,-7.6083919037812375,-7.130725634971073,-6.645764857834958
mp-562537,Ta2Ni3S8,Orthorhombic,Pbam,True,0.0,-1.044254565743589,13.0,-13.575185315478869,-13.524062194712972,-13.475283323959488,-13.417219194377193,-13.346298977126382,-13.172586999109996,-12.576175895212582,-11.97213686737676,-11.358787279406954,-10.735013184568107,-10.100070081976227,-9.45348244642971,-8.794990034167753,-8.124431181022015,-7.418981209477202,-6.691889438601887,-5.952216047940212
mp-1218077,Ta2NiS4,Trigonal,P-3m1,False,0.04542117786865418,-1.1596466378095218,7.0,-8.060317759253007,-8.020967084896421,-7.984206924599118,-7.943704120059241,-7.896952008268834,-7.798668378018186,-7.488768533111286,-7.17472211963583,-6.855656268494344,-6.530997790506262,-6.200370515462158,-5.863544381819144,-5.520412902451032,-5.170912147794452,-4.807431311011804,-4.434388236130097,-4.054809459727942
mp-28308,Ta2NiS5,Orthorhombic,Cmcm,True,0.0,-1.2366849652708316,8.0,-9.895359987817365,-9.864408427421006,-9.83551679638758,-9.801947351278011,-9.760954227757232,-9.656192719115019,-9.287727564800468,-8.915000973331814,-8.536984731294737,-8.15299911309949,-7.7625942956629075,-7.365488769788559,-6.961541958061797,-6.550666214066268,-6.1252365486003875,-5.689662004442926,-5.246965069255619
mp-8435,Ta2PdS6,Monoclinic,C2/m,True,0.0,-1.1716849588518516,9.0,-10.596319455792438,-10.571634181959018,-10.549248320678387,-10.522433079157004,-10.487502764692218,-10.376829415369723,-9.950593004076115,-9.520206228899102,-9.08449589641286,-8.642686108923781,-8.194266864071896,-7.73891556931256,-7.276463775525883,-6.80679597372038,-6.329845153806357,-5.838106079778985,-5.336619266353473
mp-560046,Ta2Pt3S8,Orthorhombic,Pbam,True,0.0,-1.0497953018974329,13.0,-13.84054415864817,-13.839007955335092,-13.842315872480619,-13.84003858780101,-13.82648784487715,-13.711040817168428,-13.173675095770225,-12.629446336167138,-12.076693667204806,-11.514321797897754,-10.941626648152807,-10.358160676392735,-9.763688513189553,-9.158076477999302,-8.541269235691537,-7.913258085953552,-7.27408004410708
mp-18344,Ta2Tl4S11,Triclinic,P-1,True,0.0,-0.8917673973823534,17.0,-15.214366439119303,-15.157768420065338,-15.093798385721318,-14.99647697402676,-14.882916183937121,-14.629293629255187,-13.796085146325563,-12.954379875054705,-12.102167111820584,-11.238154989364102,-10.361536037530502,-9.471822234798449,-8.56878746907605,-7.652330155147723,-6.512333046274414,-5.18136041458736,-3.8388189946498628
mp-554389,Ta3(BiS3)2,Hexagonal,P6_3/mcm,True,0.0,-1.177593001545454,11.0,-13.051121717901182,-13.038596486030336,-13.007257675792921,-12.952664178554278,-12.889089998143952,-12.74836999322352,-12.290379805399464,-11.826367810556253,-11.355079177782224,-10.875712530491903,-10.387751515130377,-9.890890869787775,-9.385014190709132,-8.870070469694607,-8.34605450138292,-7.812993843707435,-7.169908580026263
mp-1218053,Ta3(CuS3)2,Orthorhombic,Cmc2_1,False,0.0,-1.1704823338181816,11.0,-12.795402229069715,-12.739435803366721,-12.689901174225898,-12.637119113097587,-12.575849709731411,-12.437579582129793,-11.98195843004295,-11.520064654747904,-11.050496252197279,-10.572277725476013,-10.076253036104074,-9.558860457436136,-9.031670376410103,-8.494679460630634,-7.947928107679932,-7.391479114129492,-6.825421123217203
mp-1218117,Ta3(InS3)2,Trigonal,R32,False,0.0,-1.199091171848486,11.0,-13.127518570036717,-13.062567545814021,-12.997896066508172,-12.928980109041845,-12.850892765185717,-12.695367323409119,-12.222252478124647,-11.742784168050386,-11.25570963513573,-10.760233721378423,-10.255862874695259,-9.742312561787045,-9.219489180370552,-8.687352086551257,-8.145912657856417,-7.595212962246869,-7.0353126229055745
mp-1208409,Ta3CoS6,Hexagonal,P6_322,False,0.0,-1.266576378699996,10.0,-12.576594806883563,-12.517215829944444,-12.461848516535714,-12.402183140071362,-12.333113275713746,-12.187097349294127,-11.723963136966141,-11.254849436067211,-10.778339612259355,-10.293396285075055,-9.799176173432024,-9.295609429493592,-8.7831718576354,-8.261914417015847,-7.728826444279036,-7.1804878027782095,-6.623413426467366
mp-1189011,Ta3CrS6,Hexagonal,P6_322,False,0.0,-1.3580011036999977,10.0,-13.498963891163706,-13.442275060829033,-13.39000935694644,-13.333889182276454,-13.26939576809378,-13.128410248422671,-12.670800820207544,-12.207765357326231,-11.7379763584666,-11.260533251991525,-10.774824917258158,-10.280446739367605,-9.777170786363431,-9.264829330561513,-8.743301276932637,-8.212496540133369,-7.672346647370535
mp-1189616,Ta3FeS6,Hexagonal,P6_322,True,0.0,-1.286277303199998,10.0,-12.763368502900628,-12.701380371834913,-12.643142723805202,-12.580206950534043,-12.507846997189482,-12.35767867157927,-11.889178399906253,-11.41413378502168,-10.928835608248024,-10.435956910426786,-9.93496015748298,-9.425518466807697,-8.907481638734499,-8.380761750730326,-7.845317512917024,-7.292480304427492,-6.730533209705452
mp-1208432,Ta3MnS6,Hexagonal,P6_322,False,0.020986080176724542,-1.3131021509931031,10.0,-13.011086293768827,-12.943427324383013,-12.879328134815085,-12.810539111449973,-12.732578797061574,-12.577376001478669,-12.10438020371025,-11.623467828704257,-11.135339669702129,-10.639246473924576,-10.134060978323209,-9.617673639771933,-9.085226791122329,-8.541981527823399,-7.989548630266974,-7.427991404828546,-6.8573958068643925
mp-1218033,Ta3MoS8,Monoclinic,Cm,False,0.005913529687486374,-1.3333860401666644,12.0,-16.069668104605796,-16.037727538898952,-16.009203861069754,-15.975059015839353,-15.930351799077016,-15.784898466776909,-15.218927236575123,-14.647644329473088,-14.069474777787526,-13.483366086464393,-12.88862097851483,-12.284792056703775,-11.67164435789935,-11.049020760821332,-10.416829845822377,-9.775018855880845,-9.12357029691021
mp-20784,Ta3PbS6,Hexagonal,P6_3/mcm,True,0.0,-1.3422499447000007,10.0,-13.506221216823139,-13.48967730234948,-13.477052809088734,-13.451912395074288,-13.418006970805585,-13.307489215106589,-12.880416991709303,-12.448158149099008,-12.0095354683909,-11.563788296069832,-11.110423664573759,-10.649143711348687,-10.179821038199927,-9.702381196191332,-9.216795332611166,-8.72306042228077,-8.221199198293913
mp-1189957,Ta3RhS6,Hexagonal,P6_322,False,0.0,-1.2819534996999977,10.0,-12.836651712941528,-12.804100676573874,-12.775767553412724,-12.7433902926766,-12.702470854250866,-12.584923537936838,-12.150662143622402,-11.710943621725782,-11.26450369319738,-10.810517445828989,-10.348449418406691,-9.877979983335308,-9.398970341684281,-8.911339825934274,-8.415065801956722,-7.910148353864592,-7.396620579056972
mp-9132,Ta3SnS6,Hexagonal,P6_3/mcm,True,0.0,-1.3155167016999953,10.0,-13.186821576827171,-13.156907177935054,-13.116954590264672,-13.072096591246193,-13.018793839008229,-12.889083968585556,-12.442964730739241,-11.991757334580587,-11.53424724972557,-11.06964169331253,-10.597436297043547,-10.1173290526425,-9.629193598345227,-9.132963776659858,-8.628615917027307,-8.116158395004788,-7.595620162269274
mp-1190092,Ta3VS6,Hexagonal,P6_322,False,0.0,-1.4374483281999986,10.0,-14.26948131146915,-14.20635344589414,-14.147479768594291,-14.084672851786525,-14.013490622605005,-13.865873291614374,-13.401746059438386,-12.932361730773126,-12.456442552972069,-11.973141848785808,-11.481898246237094,-10.982358951953692,-10.474352001227969,-9.95776770648566,-9.432545085668476,-8.898650020681778,-8.356072078842264
mp-1218062,Ta3WS8,Orthorhombic,Imm2,False,0.018398342916661647,-1.305321244333335,12.0,-15.846561596277134,-15.843051228154518,-15.843055172379668,-15.8375498837012,-15.821591048696796,-15.704984559055273,-15.167950340968464,-14.625691506146197,-14.0766330869052,-13.51972466105249,-12.95427827947401,-12.37985587280949,-11.796236987954524,-11.20328108651741,-10.600916441030964,-9.989112059514717,-9.367872212923352
mp-677597,Ta4AgS8,Triclinic,P-1,False,0.0,-1.276236758153846,13.0,-16.63294302379018,-16.59420894959958,-16.56066827295728,-16.52187094296888,-16.47212559392367,-16.320813545003176,-15.747902022997428,-15.168439428377313,-14.580752452822056,-13.977441198412468,-13.360780286407905,-12.73360662359101,-12.095768791406968,-11.447190112991152,-10.787852564712324,-10.117770247729492,-9.436991578100276
mp-554416,Ta4FeS8,Hexagonal,P6_3/mmc,True,0.0,-1.3150654826410273,13.0,-16.992835590618597,-16.917558196333026,-16.84685752342847,-16.77003788697416,-16.68114674076501,-16.489259656975214,-15.873915816584612,-15.250709818955078,-14.615543108318057,-13.97083078390419,-13.315865656328672,-12.650215730472308,-11.973681911975746,-11.286145030322498,-10.58754767752107,-9.869213484709213,-9.139426344961702
mp-3581,Ta4MnS8,Hexagonal,P6_3/mmc,True,0.0,-1.3682956217126419,13.0,-17.67769252853225,-17.60009325018796,-17.526879990006563,-17.447556057719687,-17.356413504728074,-17.16284090522698,-16.546350493002343,-15.920625689512777,-15.285977950908656,-14.641400082799851,-13.985595166828162,-13.31634854735718,-12.62875366254558,-11.928040359858969,-11.215803301575797,-10.492098046076414,-9.757011357348173
mp-1218028,Ta4MoS10,Monoclinic,Cm,False,0.0,-1.3484545349555541,15.0,-20.30652267039935,-20.264862885991555,-20.227446227806414,-20.18298756391177,-20.125319198803744,-19.941717152842973,-19.2324723984425,-18.516598153114412,-17.79213011208439,-17.05775783868752,-16.31261440062516,-15.55614728815192,-14.788072643443037,-14.008202097234847,-13.216428111766678,-12.412690182021727,-11.596971622544523
mp-1218051,Ta4MoS8,Trigonal,P-3m1,False,0.07611668824175766,-1.2344136599487177,13.0,-16.08308394976419,-16.04317085405933,-16.008562053969822,-15.968781587837944,-15.918140162814053,-15.766038790259794,-15.192469571298009,-14.61250059857971,-14.024478255964244,-13.427305179605094,-12.820261742951072,-12.202898331563897,-11.574999268195697,-10.936423617288789,-10.28709220581046,-9.6269621312404,-8.9560248059569