,pretty_formula,crystal_system,spacegroup,experimentally_observed,"energy_above_hull, eV/atom",Ef,total_atoms,Gf_400,Gf_500,Gf_600,Gf_700,Gf_800,Gf_900,Gf_1000,Gf_1100,Gf_1200,Gf_1300,Gf_1400,Gf_1500,Gf_1600,Gf_1700,Gf_1800,Gf_1900,Gf_2000
mp-1105931,Pr(TmS2)3,Monoclinic,P2_1/m,True,0.0,-2.3957305143541676,10.0,-23.54291222010672,-23.399926122446534,-23.26005206661388,-23.115137863463794,-22.960511352552075,-22.727730301576592,-22.176456657805655,-21.616831135973186,-21.046681543882464,-20.433226706693777,-19.808429478993613,-19.17346580244625,-18.528231080328716,-17.872694393787278,-17.20689218523379,-16.507073696681374,-15.79145101708222
mp-1188199,Pr(YS2)3,Monoclinic,P2_1/m,True,0.0,-2.4000112858541653,10.0,-23.880275663143415,-23.81109173530139,-23.74467160862772,-23.672735613021874,-23.590670664580024,-23.430264618578427,-22.951291356782985,-22.46393823330162,-21.966042383812386,-21.424835070642004,-20.872276039085335,-20.30953501222347,-19.73650117475024,-19.15313427993711,-18.555064903999106,-17.92264033527781,-17.279840398642904
mp-36912,Pr2CdS4,Tetragonal,I-42d,False,0.09674520428571398,-1.814123438154754,7.0,-12.433974923343067,-12.341062951655445,-12.249234524031774,-12.142745692928342,-12.028412487983719,-11.860575437274093,-11.478950849941068,-11.029206019375032,-10.529923950448554,-9.956086203423993,-9.372317385414817,-8.781408629882552,-8.183397513545124,-7.578354842808478,-6.966388109016092,-6.347622260926276,-5.72219012106882
mp-34309,Pr2EuS4,Tetragonal,I-42d,False,0.0,-2.4012644456547605,7.0,-16.469560139512232,-16.35773937065825,-16.24776910446282,-16.133622966061917,-16.0119371643966,-15.837013879613322,-15.448539364368227,-15.051696898992674,-14.641979888939636,-14.156725701073526,-13.660635638367289,-13.1565650929755,-12.644606572434348,-12.124882704676446,-11.492735473453408,-10.86053110855169,-10.221658379021267
mp-1203224,Pr2HfS5,Orthorhombic,Pnma,True,0.0,-2.181887739049479,8.0,-17.261488015404822,-17.18017745028626,-17.100188875990963,-17.01492654006291,-16.92067966134058,-16.76060811931886,-16.33449370791127,-15.899659135195567,-15.453320474434111,-14.930949733467225,-14.39712274086744,-13.85460198391446,-13.303408568356828,-12.743611348788704,-12.175315034925438,-11.598653393596171,-11.01376763558022
mp-1232093,Pr2MgS4,Orthorhombic,Pca2_1,False,0.05450831714285709,-2.0978819590476183,7.0,-14.380113168080218,-14.277549598540675,-14.176945356865666,-14.072076109959331,-13.959429857196469,-13.79317818847634,-13.40550256296388,-13.00679743371159,-12.596709183319152,-12.110896161187135,-11.582826836169172,-10.981795943322888,-10.373662689671438,-9.758498918051314,-9.136409010514374,-8.507522061541072,-7.871966747939069
mp-675638,Pr2PbS4,Tetragonal,I-42d,False,0.026816572142853268,-1.874735397619047,7.0,-12.873378784696325,-12.784014688845062,-12.696323866031163,-12.595904546251464,-12.487499898078056,-12.325549946918317,-11.949811422704643,-11.56573500484598,-11.170768806780991,-10.70055355859118,-10.21977916251361,-9.731283391383798,-9.235139060557799,-8.731445996496502,-8.220330346292968,-7.701937787316187,-7.176412542831807
mp-1209396,Pr2SiS5,Monoclinic,P2_1/c,False,0.00200277250000358,-1.8656337191666656,8.0,-14.669045318757355,-14.573981629529124,-14.481151989993418,-14.38382591172488,-14.278213844841474,-14.10742902946409,-13.671213875145988,-13.226866215632114,-12.771577249852044,-12.240801366327029,-11.699097810741064,-11.14921559677693,-10.591163393016764,-10.020367881696338,-9.41539363675859,-8.802669704091592,-8.182340403766254
mp-37070,Pr2SmS4,Tetragonal,I-42d,False,0.037793926250001775,-2.291501156904761,7.0,-15.724576871796767,-15.616789542906975,-15.509072129019627,-15.395215843496834,-15.271744960782076,-15.092888074453946,-14.698279615641916,-14.293272839284812,-13.874971763884256,-13.377184710338978,-12.863688485586252,-12.337910591435012,-11.802993750480791,-11.25914039580725,-10.706565807533323,-10.14549961390118,-9.576159624744339
mp-554244,Pr2SnS5,Orthorhombic,Pbam,True,0.0,-1.7396432307291665,8.0,-13.658094861707426,-13.5596834587586,-13.448457134159607,-13.331177652166849,-13.20505872765447,-13.013362846740149,-12.555936062030469,-12.090154975990902,-11.613275046244087,-11.0607983371158,-10.497329697233507,-9.925651306057047,-9.345802925084552,-8.757868955368195,-8.161966543789713,-7.558243967205716,-6.946847618548187
mp-1202195,Pr2ZrS5,Orthorhombic,Pnma,True,0.0,-2.19584995166667,8.0,-17.32167857427131,-17.227760177358366,-17.135389713124937,-17.037976611267656,-16.931787289153284,-16.759952606221773,-16.322212899165322,-15.87584630954874,-15.415720359046075,-14.878686544537382,-14.330625560636555,-13.774290566748496,-13.209684012872149,-12.636850915699418,-12.055870074182309,-11.46684312580344,-10.869878115565061
mp-1209952,Pr3CrS6,Orthorhombic,Pnnm,False,0.006620138999999803,-2.003138715999998,10.0,-19.642032221321294,-19.50551549703316,-19.37129203445128,-19.23076397930143,-19.079061212907533,-18.847685535718675,-18.2961475761453,-17.732479949216728,-17.152709146469444,-16.46014975924503,-15.75171048863459,-15.03153250405802,-14.299614851845675,-13.55600434543382,-12.800788212330414,-12.034087799020803,-11.256018080916213
mp-542269,Pr4(GeS4)3,Trigonal,R3c,True,0.0017726955702030978,-1.5575573790350865,19.0,-29.2189792401956,-29.049445375053608,-28.884827550497036,-28.709691330682652,-28.515333731096018,-28.165464834247647,-27.179605266827146,-26.1760644140871,-25.14875034949184,-23.883336969052422,-22.584167211537277,-21.26658165205972,-19.930596408895678,-18.57634799973551,-17.20406081881255,-15.814029890428081,-14.406566428396168
mp-1202024,Pr4(SiS4)3,Trigonal,R3c,True,0.01366115771928822,-1.7244332700877196,19.0,-32.29477126697146,-32.10446709319967,-31.92010191694963,-31.725787345804505,-31.512602744837903,-31.14415869922916,-30.139944742751855,-29.11832311861577,-28.073254758242456,-26.87536873202238,-25.653595220264126,-24.413309518503887,-23.154450012727565,-21.863192501342745,-20.475109878349542,-19.06935502160165,-17.646232926329894
mp-1201868,Pr4As2S9,Orthorhombic,Pbcn,True,0.0,-1.7244407466111105,15.0,-25.45669797605898,-25.295753898478083,-25.138705742891215,-24.97277280810672,-24.790766514545506,-24.49005875239251,-23.710045018080066,-22.91338158244461,-22.09463728057813,-21.124856445987227,-20.133324501661644,-18.990653885775373,-17.82185638231325,-16.638718022177436,-15.441419913510767,-14.230192788276302,-13.005280623297658
mp-1192341,Pr4MnS7,Hexagonal,P6_3,True,0.09731361083333567,-2.0633036192364074,12.0,-24.27941950487446,-24.112007084621297,-23.946671447566295,-23.772893479198597,-23.58473596564503,-23.302144198501146,-22.644004217862484,-21.967806537625744,-21.270489948722982,-20.423440677144868,-19.555461886385523,-18.6704514142205,-17.763839426812645,-16.841165543307696,-15.90431637173102,-14.953638180816256,-13.98946638107347
mp-34486,Pr5AgS8,Tetragonal,I-4,False,0.022918237142852682,-2.0991733285714274,14.0,-28.79546935643716,-28.59380455288259,-28.39567078003767,-28.18864631890451,-27.9657061318022,-27.635184070654468,-26.876215298181478,-26.098434655089484,-25.295680172681394,-24.300865689210053,-23.278776512595734,-22.239823639615842,-21.184253234744247,-20.11236237537282,-19.02449248871355,-17.921019916808127,-16.80230772918626
mp-1219880,Pr6Ge3S14,Trigonal,P3,False,0.0,-1.7705576600000013,23.0,-40.084619837878606,-39.83532647222515,-39.592242883409305,-39.33603614786579,-39.05579446768758,-38.59201955606906,-37.383820298940876,-36.151064777150154,-34.88542907384526,-33.3084277166197,-31.68922485385905,-30.04608425384236,-28.379143744894463,-26.688667809858444,-24.97501585316033,-23.238625960160203,-21.479941358570855
mp-685513,Pr6MnS10,Triclinic,P1,False,0.04854162529412065,-2.172119100300449,17.0,-36.12406368689329,-35.855983209422426,-35.590742666705545,-35.31351987137255,-35.01592959483057,-34.58364626385848,-33.615293613438,-32.62189341549092,-31.59799712631646,-30.350725067078564,-29.073627958014775,-27.773475382412798,-26.445785126195958,-25.096201056809754,-23.726730610108227,-22.337854314635564,-20.930035545883698
mp-559955,Pr6Si4S17,Triclinic,P-1,True,0.0,-1.7785423221296257,27.0,-47.37508007571058,-47.10969288208102,-46.852478735665734,-46.580818755622545,-46.282002757143,-45.76275456552733,-44.342306124102386,-42.89631750982289,-41.415940853039984,-39.70725961266536,-37.96376321469161,-36.1935759683377,-34.39664492817167,-32.5545725748369,-30.58149637627642,-28.58299825623199,-26.55952753000537
mp-554935,Pr8Sb2S15,Tetragonal,I4_1cd,True,0.0,-1.9925900235333314,25.0,-49.006413690632705,-48.70493802379844,-48.40865656735255,-48.09618869296809,-47.75536273146174,-47.21487410741582,-45.829673926758275,-44.41146885013847,-42.95202847997906,-41.19397934749193,-39.39613722779174,-37.56989665711414,-35.715577581180874,-33.83359759843722,-31.924480006445144,-30.03454154137183,-27.988743943450327
mp-1101752,PrAsS,Orthorhombic,Pnma,True,0.0,-1.7170312605555569,3.0,-5.029481046991001,-4.992708127109187,-4.958562761839164,-4.923615307289188,-4.885973883683765,-4.833584859524729,-4.725978264294946,-4.613771479539018,-4.495753278753034,-4.339791853922034,-4.178303443916653,-3.945261290374905,-3.7031956559858603,-3.457994865756717,-3.209717424572501,-2.9584291710059576,-2.704196208811723
mp-862754,PrBS3,Orthorhombic,Pna2_1,True,0.0,-1.5502270026666658,5.0,-7.628098861342588,-7.58228715542586,-7.53957989763956,-7.495212803537143,-7.446526426570124,-7.359178388215057,-7.1128918733306365,-6.862165129629472,-6.605432711891575,-6.310312427784423,-6.009016206751834,-5.702871512811426,-5.391855067656646,-5.075978877269753,-4.75528500075894,-4.429832038505802,-4.09968887895182
mp-16684,PrCuS2,Monoclinic,P2_1/c,True,0.0,-1.5929687568229163,4.0,-6.230727294703133,-6.182721334439504,-6.136808198369186,-6.089165058199074,-6.037668087840303,-5.959204269585791,-5.773447886410847,-5.582979554415807,-5.3864109377387255,-5.1514549797203895,-4.906125096020343,-4.650208241010671,-4.389589714935706,-4.12435498929629,-3.8546017627859257,-3.5804357849641812,-3.3019621225359437
mp-1199144,PrErS3,Monoclinic,P2_1/m,True,0.0,-2.383820075187498,5.0,-11.715143530853776,-11.643836584554927,-11.573506294501758,-11.500037181761535,-11.421125295458674,-11.30262828816264,-11.024389570673993,-10.7409716493984,-10.45084017203187,-10.121625383408276,-9.785532994388237,-9.443876995392445,-9.096610270212075,-8.74371476834393,-8.384624164173179,-8.00917888945418,-7.6285189835845095
mp-1078537,PrLuS3,Orthorhombic,Cmcm,False,0.0,-2.391086762354166,5.0,-11.8473564021296,-11.80061215295639,-11.755228039326155,-11.707044015793237,-11.65371363783019,-11.56105517364622,-11.308871613251076,-11.051690224412308,-10.787943489048855,-10.485227449786992,-10.17571568814082,-9.860689028753951,-9.540071335362637,-9.213813464547682,-8.881892180293676,-8.544301824289159,-8.194147508222745
mp-1188365,PrPd3S4,Cubic,Pm-3n,True,0.0,-1.1577393620833316,8.0,-9.151163700355148,-9.09756186632189,-9.048139462092049,-8.99545708075554,-8.935429789728348,-8.821998418912157,-8.494672180990246,-8.159708851667459,-7.815274911005144,-7.428830240606381,-7.032494328679915,-6.62754601219712,-6.213936437845533,-5.7916416996866005,-5.360667528319736,-4.898642637975243,-4.420761874712522
mp-1189962,PrScS3,Orthorhombic,Pnma,False,0.0,-2.29495963702083,5.0,-11.332740288986113,-11.277769353701807,-11.224176173279545,-11.167741625733271,-11.106090246480605,-11.00502164798116,-10.744335710953084,-10.478561776024986,-10.206139580129548,-9.894678639489973,-9.576367045647821,-9.252504278996312,-8.923032859021296,-8.585453520522982,-8.241881183676046,-7.8855630273976125,-7.522761648995825
mp-1219738,PrSm3S4,Trigonal,R-3m,False,0.0,-2.273096020833332,8.0,-17.786003040959844,-17.653669217555944,-17.519902552617946,-17.377036660948985,-17.22088400334226,-17.00533877032545,-16.569885300249044,-16.120768931651483,-15.655347728778187,-15.135764684596698,-14.591518154497184,-14.025737003952857,-13.44764739649326,-12.857607869046598,-12.255969283579857,-11.643089275917372,-11.01930338756343
mp-1201800,PrTmS3,Monoclinic,P2_1/m,True,0.0,-2.385432279020833,5.0,-11.719049616183124,-11.647147787800805,-11.576537690546271,-11.503067570418125,-11.424364035695056,-11.306189387337476,-11.028343506063539,-10.745383716126248,-10.455790175249085,-10.127213856876576,-9.791891564785354,-9.45117252803422,-9.105051087635701,-8.75355168673844,-8.396726748755977,-8.026704107629513,-7.649597114670419
mp-560663,Rb(CoS)2,Tetragonal,I4/mmm,True,0.0,-0.8037687584999986,5.0,-3.8529016868252155,-3.791149728689997,-3.7322742039678927,-3.6711978261913187,-3.604020541463498,-3.508468168390071,-3.282271872344836,-2.996318977062585,-2.7048195464698335,-2.4069563983392417,-2.1018632634309107,-1.789898024998604,-1.4722184173283939,-1.1490556514603307,-0.8144555176525152,-0.461605081851145,-0.10352602308691594
mp-1239181,Rb(CrS2)2,Orthorhombic,Pmmn,False,0.0,-1.1204876767857144,7.0,-7.785740725148451,-7.739629158801133,-7.696155782317627,-7.649498397648964,-7.5964538604688485,-7.491468414767864,-7.1526529387916185,-6.75495803421676,-6.3524613423878495,-5.944406225919942,-5.53024343070456,-5.109558410563897,-4.682033246542979,-4.247414342290854,-3.805498259991017,-3.3561145656998104,-2.8991100271198462
mp-8117,Rb(MoS)3,Hexagonal,P6_3/m,True,0.0,-1.0197923457142832,7.0,-7.10759149750613,-7.075186452638624,-7.048059386203105,-7.019402454713486,-6.985580322311109,-6.911783908324692,-6.655838036172665,-6.34068729623459,-6.0205948509204745,-5.69496730065436,-5.363410337692485,-5.025651925055374,-4.681510434403165,-4.330856122833634,-3.9736011145347305,-3.60968172790772,-3.2390551105070102
mp-1219766,Rb(MoS)9,Hexagonal,P6_3/m,False,0.06614164078947127,-0.8789279518421049,19.0,-17.029101309079742,-17.052801037729193,-17.090591290044337,-17.124310781448976,-17.14418900397943,-17.04641362733593,-16.44815258089763,-15.783226469277617,-15.104388782326215,-14.410013317593549,-13.699017818221812,-12.970646574927795,-12.224392826783362,-11.459888868024482,-10.676873525179616,-9.87515884592161,-9.054606751428366
mp-1219680,Rb(Nb3S4)2,Trigonal,P-3,False,0.0,-1.3967662765000133,15.0,-20.733862699407485,-20.624155360859394,-20.52298404380265,-20.41717938559566,-20.299634684671425,-20.078957774625803,-19.412999870396586,-18.68415709875636,-17.94567684586722,-17.19632329806266,-16.435266834543206,-15.661971528452035,-14.876099627576629,-14.077429596876279,-13.26583938856281,-12.441272643341605,-11.603692983577048
mp-557824,Rb2(ReS2)3,Monoclinic,C2/c,True,0.0,-1.0526491045454547,11.0,-11.387212267105808,-11.286701668500498,-11.190394540810896,-11.089225222363003,-10.978297897843493,-10.789308544222495,-10.23868045300025,-9.572801140860312,-8.900491954535216,-8.220800198581644,-7.533097584947077,-6.8369679536545895,-6.1321705292852435,-5.418549624155311,-4.696051320668474,-3.9646492823703596,-3.224380330972192
mp-510240,Rb2Ag4S3,Monoclinic,C2/m,True,0.0,-0.6303150993518511,9.0,-5.326114012737784,-5.206365169104885,-5.094321759686174,-4.980660806063399,-4.860387603770429,-4.697868801454175,-4.328724077654968,-3.8431659439030206,-3.3503005248012165,-2.824181688940861,-2.2763007813216785,-1.7194724846231573,-1.1537330447557093,-0.5791830484940466,0.004036709929618354,0.5957753541710318,1.1958547833617175
mp-18556,Rb2Cd3S4,Orthorhombic,Pnma,True,0.0,-1.0494253316666646,9.0,-9.087961160107344,-8.957672504923165,-8.829557854197253,-8.666627752856954,-8.495299633037682,-8.269730266203366,-7.786311471641607,-7.008437084404399,-6.108898776070847,-5.205178409220954,-4.296732815717693,-3.383208310100425,-2.464382548861522,-1.5401099665240423,-0.6103339173036204,0.3249854256736171,1.2658280171954956
mp-1179796,Rb2Co3S4,Orthorhombic,Ibam,True,0.020642864938269945,-0.851017320555556,9.0,-7.346533501636923,-7.227772350575094,-7.113231117844153,-6.994323727134988,-6.864677021372252,-6.679663505035368,-6.235105997049185,-5.6730613370778205,-5.102198276039131,-4.521146005113426,-3.9285063009737424,-3.3247494404333757,-2.7115684036101264,-2.0892809094754217,-1.448940847561266,-0.7803192424214593,-0.10294694405650162
mp-8766,Rb2CoS2,Orthorhombic,Ibam,True,0.0476387656296291,-0.9395294039999996,5.0,-4.446419342899683,-4.3556077424392505,-4.267011332711725,-4.175990200934546,-4.079503494122999,-3.954890442293826,-3.678395969436152,-3.2886961747420935,-2.895267743892842,-2.497480052157046,-2.094750812260914,-1.6871622169363585,-1.275230449969385,-0.8590312578200532,-0.43557151277994066,-0.0014336272221484592,0.4368684671408616
mp-541879,Rb2Ge2S5,Monoclinic,C2/c,True,0.0,-1.0544288286111114,9.0,-9.373620599171316,-9.29924760277846,-9.228347258302026,-9.153700541306245,-9.071394780801693,-8.924587111002987,-8.469763666376245,-7.901408088679181,-7.328522859461355,-6.693651249811866,-6.04651749067126,-5.393407788790128,-4.734143848958492,-4.068632445441356,-3.3968454342940113,-2.718788591586044,-2.0345042457861027
mp-11639,Rb2GeS3,Monoclinic,C2/m,True,0.0,-1.1960902270833327,6.0,-6.987753786044568,-6.907048128941616,-6.828685211263835,-6.747722105283696,-6.661515125036791,-6.53580413402312,-6.207060187736385,-5.766017971533497,-5.322119052720662,-4.8465048004988445,-4.3639501707147055,-3.877542342089157,-3.387156059827271,-2.892722091163721,-2.39421804596185,-1.891640865397818,-1.3850144499901749
mp-559228,Rb2HfS4,Orthorhombic,Pbca,True,0.0,-1.5760449710714275,7.0,-10.824197405040008,-10.731417377235562,-10.639878430936122,-10.544216470388406,-10.44155482688409,-10.286584342019601,-9.875954526988679,-9.352415123230625,-8.825294847386681,-8.293964543027487,-7.758004509861227,-7.217142192693141,-6.67120477284292,-6.120087899956388,-5.563744637227568,-5.002153796709585,-4.4353300478514335
mp-1105776,Rb2Mn3S4,Orthorhombic,Ibam,True,0.016040155000000667,-1.0055287915325661,9.0,-8.823947850725656,-8.725124176931988,-8.629164770331727,-8.527663893528546,-8.41612329228173,-8.248326623063244,-7.818961813364037,-7.266298585679751,-6.7053579736664926,-6.135633551569292,-5.554875150162875,-4.957433960392251,-4.329002547803018,-3.6855290402384373,-3.03193165847372,-2.3684317561293646,-1.6952732474127288
mp-8714,Rb2MnS2,Orthorhombic,Ibam,True,0.0,-1.1977471095862107,5.0,-5.743056863975225,-5.653044078365664,-5.564794599776516,-5.473728628396149,-5.377430278851394,-5.252709165156505,-4.975431914155973,-4.583012252652426,-4.18704429390647,-3.7871855408749946,-3.382569724318099,-2.9712393416782783,-2.5483771052174617,-2.119268897686318,-1.6855430351241765,-1.2472653729263516,-0.8045208642075998
mp-15905,Rb2Mo9S11,Trigonal,R-3c,True,0.02713094079546341,-1.031592061022726,22.0,-22.720865686841393,-22.648246130263715,-22.589527633774168,-22.52460861958107,-22.44267242726038,-22.217474279654276,-21.36463424787019,-20.389424644645075,-19.39930626988543,-18.392362850184,-17.367314489748757,-16.323272383161807,-15.259642526872387,-14.175999019939141,-13.072051097180312,-11.947591657537671,-10.802479285098087
mp-18612,Rb2MoS4,Orthorhombic,Pnma,True,0.0,-1.2407968307142845,7.0,-8.546348817914696,-8.471424148009735,-8.398119893184948,-8.321067811964912,-8.237392272071851,-8.101790333685383,-7.71090736227711,-7.207486880703148,-6.70084724129939,-6.190342704747955,-5.675536987868494,-5.156134733994513,-4.631941359404507,-4.102824530119898,-3.568710362140848,-3.029548647465555,-2.485320889765948
mp-1079718,Rb2Ni3S4,Orthorhombic,Fmmm,True,0.0,-0.9468281516666666,9.0,-8.244728515161245,-8.13389702550299,-8.025500720797375,-7.91014199962776,-7.785567516288444,-7.606307157235323,-7.168634588675204,-6.615020186054968,-6.05459598474083,-5.486609924941453,-4.910556150018991,-4.326108958137212,-3.733067770829681,-3.131311896952253,-2.4980464412517414,-1.8465331263179152,-1.1858400359181651