,pretty_formula,crystal_system,spacegroup,experimentally_observed,"energy_above_hull, eV/atom",Ef,total_atoms,Gf_400,Gf_500,Gf_600,Gf_700,Gf_800,Gf_900,Gf_1000,Gf_1100,Gf_1200,Gf_1300,Gf_1400,Gf_1500,Gf_1600,Gf_1700,Gf_1800,Gf_1900,Gf_2000
mp-1181796,Co8RuS8,Cubic,Fm-3m,True,0.0,-0.7171646041176466,17.0,-12.083471101618525,-12.00687961725831,-11.940505380187712,-11.86704913406217,-11.772363096523982,-11.56809982566779,-10.932278817474405,-10.278239302537973,-9.602628399695899,-8.902408374455842,-8.17426411298786,-7.419712568637177,-6.643439791824203,-5.846393583248286,-5.00474109270867,-4.091221749096725,-3.157892439849242
mp-553946,CoAsS,Orthorhombic,Pmn2_1,True,0.0,-0.48031348510416666,3.0,-1.4003074838004559,-1.3844093953661276,-1.3714943572164926,-1.3581088875575404,-1.3417993612647638,-1.3111329687294053,-1.2256345572816678,-1.1368325309048735,-1.0442276908714452,-0.947397821331017,-0.8459405883190625,-0.6725616789314368,-0.4903188989986358,-0.3051575772071833,-0.11409222196596946,0.08628855259129153,0.2894761905153258
mp-1226070,CoCuS4,Monoclinic,P2_1/c,False,0.03333876915798761,-0.30623300770833356,6.0,-1.7368066071646613,-1.686823353321682,-1.63822724995222,-1.586362460586459,-1.5280650111322998,-1.4187177147710464,-1.0982885436155585,-0.7742142610659641,-0.4455078704029791,-0.11137883431359796,0.2331253101252697,0.5895880583907793,0.9516647476740898,1.3192603365009958,1.69534948738211,2.083321277693372,2.476636286369006
mp-1226065,CoNi5S8,Cubic,F-43m,False,0.02651230678570382,-0.6575724399999997,14.0,-9.015693904945387,-8.915823758167042,-8.817932069159543,-8.708018635222889,-8.582474493713711,-8.351870113646495,-7.695989463255215,-7.0296091151215485,-6.350766717069094,-5.658059892395016,-4.950380805007555,-4.227464180761196,-3.489616297100703,-2.7367849543282645,-1.9280015314618453,-1.0819654259403606,-0.22028135107233382
mp-1226064,CoNiS4,Monoclinic,P2_1/c,False,0.01982050749999953,-0.6171023449999993,6.0,-3.5991732937164604,-3.547617727338972,-3.496410808040692,-3.440526693651437,-3.377527947882907,-3.263041981522255,-2.9370958432227345,-2.607153243578338,-2.272249987341514,-1.9316390672816484,-1.5846546971611515,-1.2313167395377924,-0.8721026239717249,-0.5070607525631523,-0.12559351622945947,0.2712978426664723,0.6740920924147265
mp-1226106,CoRhS4,Monoclinic,P2_1/c,False,0.0,-0.7007751924999989,6.0,-4.147105049399818,-4.107627907909319,-4.0693005743002235,-4.027415390576056,-3.978770034714984,-3.8787286641487153,-3.567254068837441,-3.2517902671950267,-2.9313709911128463,-2.605255451943494,-2.272788227754706,-1.9340047275622574,-1.5893989638148227,-1.23903384864008,-0.8799160637778165,-0.5086368396719667,-0.13172316022190422
mp-1226040,CoRuS4,Monoclinic,P2_1/c,False,0.017415504583333963,-0.7659765241666664,6.0,-4.542753766028656,-4.5049514017283485,-4.468757984035673,-4.429472073537349,-4.3838913482115505,-4.287364419031981,-3.9798364566397693,-3.668731787268645,-3.3530592684771925,-3.032052200854668,-2.7050302881360118,-2.371997846421001,-2.033419868103384,-1.6893260995337673,-1.3366765830779492,-0.972024201250127,-0.601854480728349
mp-5881,CoSbS,Orthorhombic,Pbca,True,0.0,-0.37020566177083464,3.0,-1.0662147636795294,-1.0491453115671217,-1.03494490238075,-1.0201631636180055,-1.002302940071982,-0.9698640541492631,-0.8604114630416877,-0.7464675076139575,-0.6285207074366785,-0.5062058503388105,-0.3791382216748951,-0.24754281205946738,-0.1120438884309678,0.02720168505224585,0.1731291331004181,0.3062410992882896,0.5077981109437788
mp-985304,Cr(GaS2)2,Trigonal,P-3m1,True,0.07040960535714902,-0.8906969192857132,7.0,-6.157225393744548,-6.083458043884783,-6.013090660330768,-5.940329028657928,-5.861996951733831,-5.7325862764925235,-5.391939756600662,-5.047483508063548,-4.698308386715044,-4.343794564000589,-3.9835275217810278,-3.617218121973078,-3.24467074442469,-2.865753055157299,-2.4803745872825207,-2.0884778777848236,-1.6900247381560138
mp-677093,Cr(InS2)2,Orthorhombic,Imma,False,0.0297044070535728,-0.8324477740476175,7.0,-5.710746534391499,-5.644718907554498,-5.576314183230947,-5.5045948604750485,-5.426517405262628,-5.296687671886389,-4.955043765622047,-4.6090677697236995,-4.2578940701076,-3.900948441162658,-3.5378495305267723,-3.1683330744494658,-2.7922345456946864,-2.409438193172397,-2.019874278604881,-1.6235060675872734,-1.2203036630556383
mp-542188,Cr(MoS2)2,Monoclinic,C2/c,False,0.07123299071428502,-0.9590313749999991,7.0,-6.723555792720443,-6.702792119152432,-6.685849202686667,-6.666597025405802,-6.641672832681425,-6.565452391227853,-6.277695540269088,-5.985749627089905,-5.6886412488310985,-5.385686318245058,-5.076406058499556,-4.7604470728182555,-4.4375515552171105,-4.107518767302363,-3.7701898377704346,-3.425438899190599,-3.073155212917335
mp-1226263,Cr11NiS16,Triclinic,P-1,False,0.013053152738095264,-0.9331300357142851,28.0,-26.126792883581768,-26.032391422758856,-25.951827169751052,-25.859887717292757,-25.743459923224187,-25.419862369767664,-24.247755080244055,-23.05610043441274,-21.84056433786028,-20.59799068723025,-19.32604047510568,-18.022888651459514,-16.687087347281178,-15.31744183825409,-13.905346488363293,-12.454358562715157,-10.96665831240717
mp-1238827,Cr2AgS4,Cubic,Fd-3m,False,0.0,-0.8328738202380949,7.0,-5.842751309987195,-5.8222277286146005,-5.805359075458933,-5.7859925311311144,-5.760707300892872,-5.683799346307465,-5.394942482864629,-5.1014011434064885,-4.802119010631177,-4.490048313816962,-4.1676433745407016,-3.837777204276044,-3.500195106330544,-3.1547025608936394,-2.8011438059533535,-2.439395046940028,-2.0693434723470734
mp-4338,Cr2CdS4,Cubic,Fd-3m,True,0.0,-0.9827312107142855,7.0,-6.8722776955575435,-6.846456972326339,-6.823253710348286,-6.7869405449682025,-6.74438532735132,-6.650015645738624,-6.343618286547976,-5.972800741127997,-5.557748335955649,-5.137135433283239,-4.710413815432817,-4.277169972657118,-3.837089095292766,-3.3899186234193373,-2.9354571920813957,-2.4735354037658155,-2.0040041718973463
mp-21299,Cr2CoS4,Cubic,Fd-3m,True,0.0827365850595232,-0.827996545714284,7.0,-5.778956867200316,-5.750747065209794,-5.725836695763295,-5.697966187126821,-5.663073194062017,-5.575990549148364,-5.276315372016141,-4.971209488884677,-4.659483919343851,-4.34019546851273,-4.012510900316736,-3.6762913590999027,-3.331860476407334,-2.979120120468064,-2.6149057714321096,-2.2356516489289078,-1.8477122679793094
mp-22803,Cr2CuS4,Cubic,Fd-3m,True,0.0,-0.9205374728571404,7.0,-6.425902199202486,-6.397993845288298,-6.373828516186363,-6.347246137493868,-6.314831096625211,-6.2308907558795115,-5.935113440773978,-5.634771875594991,-5.3288087066101575,-5.016443458532267,-4.692853674164274,-4.356031813598785,-4.011537555434851,-3.6591732705703066,-3.298781124132116,-2.930235248689545,-2.5534207598749443
mp-1078247,Cr2FeS4,Monoclinic,C2/m,True,0.0782219828571371,-0.8471954742857132,7.0,-5.859283389982564,-5.817506826806741,-5.778768515680566,-5.736670003178581,-5.687529314068133,-5.58533666290518,-5.26933781936923,-4.947343415193419,-4.615871885628092,-4.277690457101335,-3.9322716405458666,-3.579219545533482,-3.2182317995672065,-2.8490713891846156,-2.4715431680134685,-2.076832871462864,-1.6730631650433612
mp-1104382,Cr2GaS4,Cubic,Fd-3m,False,0.0157938160714286,-0.9511463260714278,7.0,-6.628817979639174,-6.58269167127292,-6.540120793792402,-6.495094518791597,-6.444287403141287,-6.342073140694728,-6.028191878495785,-5.709967125926974,-5.386394387213088,-5.056760555051583,-4.720557832555309,-4.377404839323526,-4.027013712886724,-3.669159876948877,-3.3036606223041503,-2.930369352911148,-2.5491525286526144
mp-15973,Cr2HgS4,Cubic,Fd-3m,True,0.0,-0.8520813960714284,7.0,-5.886538781969676,-5.84265181135076,-5.802244612188655,-5.691989156512636,-5.547018828990555,-5.351392766808823,-4.944768202568652,-4.5344002412373605,-4.1192273833604105,-3.6984950644139345,-3.271652993858913,-2.8382897348091483,-2.3980884047401965,-1.9507985165927033,-1.496216632550162,-1.0341754279605198,-0.564523743387447
mp-27512,Cr2NiS4,Monoclinic,C2/m,True,0.05982087952380866,-0.8277124414285707,7.0,-5.720982539628648,-5.678428097586037,-5.638578176961371,-5.594902697651467,-5.5447125848745245,-5.4425597985355125,-5.128191740692033,-4.80890808282433,-4.483674272671744,-4.151753365029455,-3.812609579385921,-3.4658387338686705,-3.1111332738280613,-2.7482489307879394,-2.3694049233032537,-1.9788657036820982,-1.579498198200957
mp-1226433,Cr3GaS6,Trigonal,P3m1,False,0.0,-0.9953835012499986,10.0,-9.938547614597384,-9.883887154681377,-9.83366536767545,-9.779525887619602,-9.71682557412455,-9.577314970967354,-9.120713029095647,-8.658065267098877,-8.187897010529188,-7.7091553324610675,-7.221082975546491,-6.723106386709617,-6.214788275026322,-5.695782646760758,-5.1658056872899945,-4.624626356718064,-4.072032118407687
mp-1226375,Cr3Rh3S8,Triclinic,P-1,False,0.049391985675465655,-0.8190428242857136,14.0,-11.467172859302808,-11.419515923183829,-11.378665138259548,-11.332212259129017,-11.273270093372224,-11.110449219865295,-10.52316152828076,-9.926026053759253,-9.317032768319837,-8.694795878148213,-8.05834021026087,-7.406973481132602,-6.740202880267045,-6.057655950931604,-5.359078172781658,-4.644268596051894,-3.913074147866457
mp-1247752,Cr3SnS8,Trigonal,R-3m,False,0.04063353583333296,-0.7879787312499987,12.0,-9.501739942768326,-9.46378222857987,-9.414896167258437,-9.359109983257774,-9.292132314391498,-9.123627061365386,-8.533638993611143,-7.937179483189958,-7.33248078633936,-6.7182914133429215,-6.093720274702079,-5.458101286339236,-4.8109383046281575,-4.151847230001824,-3.4805210652619962,-2.7967204958910337,-2.1002269602789667
mp-1226264,Cr4GaS8,Cubic,F-43m,False,0.0,-0.9909478605769226,13.0,-12.879260141471411,-12.815642141734596,-12.757346056932207,-12.693669983550272,-12.61865308393942,-12.441422751800534,-11.841676741985019,-11.234182582289232,-10.616995419592694,-9.988722507346905,-9.348357127742974,-8.695133555029964,-8.028465069829121,-7.347884260964786,-6.653006208396935,-5.943515428375026,-5.219120387741754
mp-676751,Cr5AgS8,Monoclinic,P2_1/m,False,0.011941100297623741,-0.9054204965476182,14.0,-12.781204501464437,-12.760556289704958,-12.747273901628136,-12.728977075457408,-12.698770327328504,-12.565205159577147,-12.007592928114153,-11.44041896854136,-10.861527116172647,-10.263063214235737,-9.646880508672348,-9.015378388237936,-8.367922051453082,-7.704000159893742,-7.0231820000246366,-6.325108048208868,-5.60943660121352
mp-1226160,Cr5InS8,Monoclinic,Cm,False,0.0,-0.9469975576190462,14.0,-13.30751311459756,-13.26649155002022,-13.229847779898193,-13.187771890177368,-13.133530080156659,-12.975808588141101,-12.394032777400177,-11.80277504370051,-11.199952808923841,-10.584069381188817,-9.954032470861673,-9.30899951198987,-8.648318083774935,-7.971455082751624,-7.277963212496124,-6.567470512205137,-5.839618695757224
mp-1226130,Cr5NiS8,Monoclinic,P2/m,False,0.020007029285713962,-0.9174099435714282,14.0,-12.807850625067005,-12.751279798627785,-12.70112438907223,-12.644626873909694,-12.575623489232372,-12.402921735717683,-11.80590655584432,-11.199098523852243,-10.580363240096524,-9.948157373321816,-9.301344067381429,-8.639045517684703,-7.960574064795015,-7.265368621622731,-6.545373455199503,-5.804617288766181,-5.045738156872918
mp-1232870,CrAgS2,Monoclinic,Cm,False,0.001742457291666888,-0.7270221354166653,4.0,-2.893788342233218,-2.878544946711437,-2.866073237382241,-2.852565932410525,-2.8359199343180883,-2.7930543547443767,-2.643664205275368,-2.4912919095462485,-2.335351328927798,-2.1691345123212606,-1.9953452417643671,-1.8170487014058576,-1.6341396230079113,-1.4465449041997864,-1.2542098883865993,-1.0570952248532652,-0.8551670986132143
mp-7113,CrAuS2,Trigonal,R-3m,False,0.0,-0.7597987337499976,4.0,-3.034107467941429,-3.021202235043865,-3.0111049634075497,-3.0000239176553762,-2.9858736196282107,-2.945600128159361,-2.798924365598137,-2.649401192746124,-2.496429960946636,-2.3395720873965065,-2.172281211624269,-1.9971374682891074,-1.8175563436746245,-1.633452298243685,-1.444761347526601,-1.2514348129334927,-1.0534316244640536
mp-5862,CrCuS2,Trigonal,R3m,True,0.03752958000000994,-0.7679407087499985,4.0,-3.0495390208409936,-3.032553618875736,-3.018427999698389,-3.0033476264601147,-2.985214583835379,-2.9409593841994948,-2.7902915491659015,-2.636761793814055,-2.4797829430842,-2.318914341312105,-2.1495829917615965,-1.9699735272003718,-1.785795054682108,-1.596971362544462,-1.4034457213314848,-1.2051767074670217,-1.0021284331034401
mp-1226309,CrCuS4,Monoclinic,P2_1/c,False,0.005592272500000384,-0.6443818341666656,6.0,-3.8013439093310826,-3.76093142937662,-3.7223175628173717,-3.680878602530054,-3.6340382305349146,-3.5366019682062424,-3.2285782084476917,-2.9174627911997875,-2.602357852769104,-2.2826096646730223,-1.9534979244278983,-1.6131043694943434,-1.267069926349123,-0.9152709496239257,-0.5576223451348241,-0.19406508680919465,0.17544481103435317
mp-9130,CrSbS3,Orthorhombic,Pnma,True,0.0,-0.7851114979999998,5.0,-3.9297522546376875,-3.912745479515627,-3.8979580408486045,-3.8811625252062933,-3.859971030839925,-3.800181097348034,-3.559696974003473,-3.315045203072413,-3.066492748517642,-2.813598134180122,-2.556061500106374,-2.293670174541603,-2.0262765075152736,-1.7537712426372538,-1.4760803587960112,-1.216013661223636,-0.8857191180112984
mp-557018,Cs(CoS)2,Tetragonal,I4/mmm,True,0.0,-0.724003729124999,5.0,-3.4595921997201424,-3.3995150574446464,-3.342323676457065,-3.282907604512747,-3.2173522776874517,-3.1233897331700216,-2.8831994961829333,-2.6017757464489586,-2.3148075342655456,-2.0214776774053664,-1.720920943059041,-1.4134910687582076,-1.1003447523584065,-0.7817121684691513,-0.4516318523348133,-0.10329086990158665,0.2502942819525007
mp-1238823,Cs(CrS2)2,Orthorhombic,Pmmn,False,0.0,-1.118872696736452,7.0,-7.781545725172695,-7.737507524834882,-7.696116842235687,-7.6515183135490705,-7.60049428442127,-7.497497217426069,-7.145086350657758,-6.752319141780965,-6.35475221851118,-5.951628943463474,-5.542401098959883,-5.126649993100482,-4.704056670499762,-4.274366498376239,-3.8373687838996617,-3.3928930931263857,-2.940781011606358
mp-561682,Cs(MoS)3,Hexagonal,P6_3/m,True,0.0,-0.9598388254910739,7.0,-6.718047071210028,-6.693470481076357,-6.67418119724947,-6.653338210466218,-6.627291674840476,-6.561238728284165,-6.297452554064396,-5.992984598548706,-5.68357701051804,-5.3686363903964445,-5.047769466870689,-4.720700057239162,-4.387245496731472,-4.047275006014859,-3.700693454263537,-3.3474371598787798,-2.9874580882623256
mp-1226696,Cs(MoS)9,Hexagonal,P6_3/m,False,0.05984360921052456,-0.7511239463322358,19.0,-14.740695760929356,-14.799659029630323,-14.872722149871791,-14.941690671300483,-14.996779575925263,-14.93418275202956,-14.3555164888412,-13.728708246961267,-13.08799050261101,-12.431737053340552,-11.758866678722626,-11.06861952375187,-10.360487791069652,-9.634102738481378,-8.889195937501796,-8.125579435803733,-7.343109972412421
mp-1229220,Cs(Nb3S4)2,Trigonal,P-3,False,0.0,-1.3875911673103474,15.0,-20.657644494017475,-20.563585164500363,-20.47807118434941,-20.38790002514593,-20.285950475295493,-20.080836586977128,-19.41485793497731,-18.704517502056625,-17.984541660748093,-17.253694597385206,-16.511147727599024,-15.756360978810584,-14.98899556237685,-14.208828906826561,-13.415731709357846,-12.609647610676035,-11.790535050992887
mp-1229211,Cs(NbS2)2,Orthorhombic,Pnnm,False,0.0,-1.4871324170935967,7.0,-10.318076141203328,-10.26336831180427,-10.211388841725421,-10.156421248832194,-10.095384687601225,-9.98286635657561,-9.621566448402163,-9.2206916667423,-8.8159416667251,-8.406711129823481,-7.99259279291201,-7.573315137226477,-7.1487063805170905,-6.7186528445548905,-6.283086863923224,-5.841976886369881,-5.395303379136271
mp-8890,Cs(SbS2)2,Triclinic,P-1,True,0.0,-0.6165891251785719,7.0,-4.23758757993008,-4.185754414490443,-4.1364133022094345,-4.083827032341807,-4.024794533422332,-3.9137309565255958,-3.5093876939667488,-3.0629323759761053,-2.6120255842516453,-2.156173934763869,-1.6950800260238736,-1.2285656180154358,-0.7565459886535635,-0.27898622842981524,0.20409634076873218,0.6469323694997193,1.225076447784529
mp-1226432,Cs(V3S4)2,Trigonal,P-3,False,0.05764417500000363,-1.271067919310344,15.0,-18.819161789692643,-18.700785157025884,-18.589697719918988,-18.472821321617268,-18.34308449919187,-18.109051556156256,-17.412941225715297,-16.67113833754878,-15.918238673942541,-15.152875830982882,-14.374096852636887,-13.581231076078389,-12.773833996749971,-11.951608420181973,-11.114356639157318,-10.261941452799768,-9.394252896905869
mp-650280,Cs2As8S13,Orthorhombic,Pbcn,True,0.0,-0.6213173926874064,23.0,-14.44949077281251,-14.396183201751949,-14.353585588904336,-14.302266549803743,-14.231652162896975,-13.993731937408887,-12.993538996198144,-11.908647799341814,-10.809270990075316,-9.693452608351588,-8.560181645796106,-6.86881375025467,-5.118620812341597,-3.3558656566111367,-1.5802749466487214,0.20831436189481423,2.0099549733168303
mp-558911,Cs2Co3S4,Orthorhombic,Ibam,True,0.02562993642856881,-0.7343255361547674,9.0,-6.295890200080823,-6.177616540366223,-6.063581454732115,-5.945132535315249,-5.8158676049853515,-5.631171605388248,-5.155764075146148,-4.599915565899121,-4.035252801306902,-3.460404972549794,-2.873975929161915,-2.276427656512281,-1.6694510618576377,-1.0533617913083404,-0.4191992243689171,0.2432656144068126,0.9145122393236953
mp-561830,Cs2CoS2,Orthorhombic,Ibam,True,0.03417231899999962,-0.9097247653750002,5.0,-4.283400408150297,-4.189681674118251,-4.098196786568707,-4.0042395011649825,-3.9047399448674307,-3.7770497848591895,-3.46631066482675,-3.0794123959381805,-2.6887896366165522,-2.293811762130514,-1.8938985580673329,-1.4891239257146687,-1.0800019759974546,-0.6666063825146775,-0.24592950753045528,0.18544623658210568,0.6210172824158864
mp-572598,Cs2Ge2S5,Monoclinic,C2/c,True,0.0,-1.0733811182567043,9.0,-9.557295498954652,-9.48679037763953,-9.419776563990428,-9.348968702017448,-9.270425100676235,-9.127315331347809,-8.645022248195652,-8.086243204953425,-7.522938655912565,-6.8976518721621805,-6.2601091575038765,-5.616588427243979,-4.966909313311451,-4.310976517110214,-3.6487473846681127,-2.9802276920547186,-2.3054494034333537
mp-1105419,Cs2Hg3S4,Orthorhombic,Ibam,True,0.0,-0.7802738718678133,9.0,-6.446872305675689,-6.2616879394182625,-6.0812831639796805,-5.6958002027865335,-5.216424068427154,-4.686218616368167,-3.870083724144571,-2.978569779640406,-2.083685949382179,-1.1846273156213503,-0.280846564498745,0.6280120623073273,1.542179199748773,2.4617962675804037,3.3869406401972277,4.317645925889934,5.253908662334872
mp-17905,Cs2Hg6S7,Tetragonal,P4_2nm,True,0.0,-0.6277655741206928,15.0,-8.517880209407538,-8.231769339192306,-7.95398616793125,-7.267548305050954,-6.396229496722425,-5.437822423927111,-4.036774145516375,-2.558985996326239,-1.0756376836049668,0.4146200954573409,1.9127097221928722,3.4192225724919894,4.934545629017528,6.45891441862242,7.992452543740594,9.535215327236191,11.087190952724995
mp-2884,Cs2Mn3S4,Orthorhombic,Ibam,True,0.0,-1.2728618055220298,9.0,-11.225957099528967,-11.126728258294317,-11.03038234000267,-10.928447275703576,-10.816395791101389,-10.648023979834466,-10.186916489091129,-9.639556753342964,-9.083923778987957,-8.519511140271145,-7.944070740828316,-7.351945480160218,-6.728825850951374,-6.090657908183978,-5.4423453626057885,-4.784109567837291,-4.116184073780516
mp-505034,Cs2MnS2,Orthorhombic,Ibam,True,0.0,-1.323213617021554,5.0,-6.351995695903716,-6.257976285816582,-6.165738838499458,-6.070637222586587,-5.970226532649868,-5.8413288198699505,-5.5287074307886925,-5.137989804184678,-4.743728026060386,-4.345579599372709,-3.94268032774281,-3.5330644171689176,-3.1119125070518994,-2.6845084072813563,-2.2524659238691385,-1.8158509122105837,-1.3747379611151072