,pretty_formula,crystal_system,spacegroup,experimentally_observed,"energy_above_hull, eV/atom",Ef,total_atoms,Gf_400,Gf_500,Gf_600,Gf_700,Gf_800,Gf_900,Gf_1000,Gf_1100,Gf_1200,Gf_1300,Gf_1400,Gf_1500,Gf_1600,Gf_1700,Gf_1800,Gf_1900,Gf_2000
mp-3041,Er2CdS4,Cubic,Fd-3m,True,0.0,-1.9520828735714275,7.0,-13.44300099468226,-13.360748627103877,-13.280006812969136,-13.185406792587369,-13.084052723285373,-12.930542167911597,-12.564802867436422,-12.134564612011388,-11.66011637116678,-11.180232004486106,-10.69445242731726,-10.202453262938848,-9.70400261613015,-9.198926695691267,-8.685958686078589,-8.14463587993809,-7.597115248630974
mp-21707,Er2CrS4,Orthorhombic,Pca2_1,True,0.04907373988095376,-1.8768349182142856,7.0,-12.884889326315125,-12.795608116134348,-12.708930893609793,-12.618988821318485,-12.522543516296004,-12.374020493922263,-12.01319824917086,-11.647419983604442,-11.27568949289207,-10.897299888314393,-10.511739227262137,-10.118623020042953,-9.717654076312538,-9.308594346177937,-8.890103427527677,-8.441652281453592,-7.985318074165844
mp-1200853,Er2HfS5,Orthorhombic,Pnma,True,0.023519500104164592,-2.132370929153648,8.0,-16.872925670216997,-16.793340236846753,-16.715503803679475,-16.633195806112163,-16.54299359067155,-16.38831407162477,-15.969150474714116,-15.544888004778496,-15.114448699737999,-14.67709686675408,-14.23232464263371,-13.779779004473669,-13.319211586083853,-12.850446644452578,-12.372214582408109,-11.864061510667238,-11.348152788840714
mp-1232129,Er2MgS4,Cubic,Fd-3m,False,0.0,-2.173367973571426,7.0,-14.917479858811845,-14.816989534792157,-14.718885548016706,-14.617318753242657,-14.509065277533047,-14.348553745559393,-13.968177048315404,-13.580392135614742,-13.186551354714803,-12.786105354337288,-12.347438911570281,-11.836731251288473,-11.319572108576377,-10.795788728664636,-10.264111186718031,-9.704080921104666,-9.137850757463626
mp-1225595,Er2MnS4,Orthorhombic,Cmc2_1,False,0.017614081904756773,-1.9977883824856317,7.0,-13.707344002102941,-13.610759776924603,-13.515916192768294,-13.416972395835444,-13.310727314660815,-13.151654140428866,-12.779112650177751,-12.399124596540236,-12.01272206973894,-11.61934949991237,-11.217978802045689,-10.806520558219372,-10.380047842897106,-9.943751429319073,-9.498022790794845,-9.022486280135183,-8.539373491699692
mp-1225956,Er2PbS4,Orthorhombic,Cmc2_1,False,0.0,-1.9169612142857129,7.0,-13.206437903264588,-13.126275506142338,-13.048213391437148,-12.958224976998897,-12.861341559087903,-12.71226019788379,-12.350949055147748,-11.984921307049868,-11.613331031686531,-11.235611258460384,-10.85136819784292,-10.460324112486743,-10.062282345809258,-9.657098126665506,-9.243523295261463,-8.80111587285377,-8.352044231539509
mp-1225541,Er2TeS2,Orthorhombic,Immm,False,0.0,-2.1372600884583335,5.0,-10.493745526357179,-10.431833084732533,-10.37350806786681,-10.313767812290816,-10.230009875135394,-10.111797148126358,-9.884965683407476,-9.653264907631083,-9.416204154040173,-9.17344196202217,-8.86664406212988,-8.569353288645729,-8.266583415654722,-7.958213267815605,-7.643003876097474,-7.300514281364899,-6.952905407090725
mp-1192811,Er2ZnS4,Orthorhombic,Pnma,True,0.008808258690477189,-1.9844765739285681,7.0,-13.631425508077589,-13.539879198234184,-13.450667404108348,-13.35712220033599,-13.246551921058973,-13.083607505298183,-12.708240531926279,-12.327951739946956,-11.923161725568217,-11.430215991634178,-10.931376083642508,-10.426316588441265,-9.914804574379204,-9.396668323117492,-8.870638946251454,-8.316255809288123,-7.75567381072764
mp-1197488,Er2ZrS5,Orthorhombic,Pnma,True,0.010240061666669575,-2.160971890937499,8.0,-17.029856476422196,-16.932570774758926,-16.83726001515487,-16.7377088151597,-16.630471719828403,-16.458936623373184,-16.02305529431502,-15.582168370979886,-15.132849339699533,-14.675741996675168,-14.211643344755116,-13.740191033161352,-13.26111803995418,-12.774224784219648,-12.278215758022696,-11.752604942733583,-11.219524532185986
mp-18420,Er3CrS6,Orthorhombic,Pnnm,True,0.0031674192500021903,-2.0190366717499986,10.0,-19.755932151321645,-19.607893667539013,-19.46278895953219,-19.312582954806484,-19.152837726218195,-18.915440626374767,-18.36021943142982,-17.798300501554404,-17.228269275271586,-16.649128792904648,-16.060162217896362,-15.46083745439223,-14.850749340814637,-14.229577794191073,-13.595348581698893,-12.91730156565491,-12.228587944717482
mp-7290,Er3GaS6,Orthorhombic,Cmc2_1,True,0.0,-1.9799712401874985,10.0,-19.385389811992763,-19.22684996538931,-19.071088429981675,-18.910286747256624,-18.740156236067232,-18.492702402101735,-17.927855628136562,-17.356844880965532,-16.778350950720785,-16.191470156473585,-15.595578940414697,-14.990237449007083,-14.375132762990585,-13.750037041710168,-13.113068294660618,-12.43355551718463,-11.744745259549603
mp-1225608,Er3Sc2S7,Monoclinic,C2/m,False,0.0,-2.291174822890625,12.0,-27.023453892239047,-26.859697793823337,-26.699984587327343,-26.534489566697495,-26.357789587605104,-26.090265242469684,-25.451627570091233,-24.804808344665986,-24.14812999188787,-23.48042030897624,-22.800840546174474,-22.10877799557743,-21.40377434327334,-20.68052814503021,-19.941275285963112,-19.14170017026715,-18.32743022275514
mp-1225623,Er3ScS6,Monoclinic,P2_1/m,False,0.0042666235000012875,-2.3127068371874997,10.0,-22.679218171806824,-22.527313523760682,-22.37819029620196,-22.223889076064896,-22.060018575579782,-21.81849309454792,-21.259167356316823,-20.693195704681905,-20.119189488929585,-19.53618076943807,-18.943479656843998,-18.340584111778316,-17.727120065579435,-17.10032560493851,-16.460375017528314,-15.76976825790797,-15.067932111614631
mp-1225577,Er4CdS7,Monoclinic,Cm,False,0.05599094611112143,-2.068281836458332,12.0,-24.338790425208778,-24.171383248735907,-24.006676786642217,-23.8253743942308,-23.632420341797012,-23.34839836214488,-22.693185322959728,-21.97010476917935,-21.198764300358896,-20.41746417057631,-19.625409160157346,-18.822031127709813,-18.006916325834872,-17.179750614026467,-16.338013697682648,-15.440789473147547,-14.532387025595682
mp-1225666,Er4CrS7,Monoclinic,Cm,False,0.057188520416669775,-2.0518159697916656,12.0,-24.077762804937564,-23.89531147601129,-23.71665429567676,-23.531994541504794,-23.335933943499494,-23.048884186996382,-22.390572893683984,-21.723937019911205,-21.04729899137197,-20.359478313841365,-19.659626909687972,-18.947116524548655,-18.221468115900965,-17.482303284545836,-16.727028149313405,-15.914660274993707,-15.089428941610194
mp-1196341,Er4In5S13,Orthorhombic,Pbam,True,0.05958430348484711,-1.415489493404346,22.0,-30.439251884918086,-30.14803106785415,-29.849978554491344,-29.539949496063226,-29.208831123942417,-28.709543297961254,-27.522181396269765,-26.32127823841941,-25.104171807298503,-23.86911580410725,-22.614960923300792,-21.34093651254204,-20.046572939944227,-18.731556239063586,-17.39342950490382,-15.991387615989119,-14.56984945075255
mp-1225593,Er4MgS7,Monoclinic,Cm,False,0.02475231902776187,-2.228603438541665,12.0,-26.070137594172284,-25.854993656216593,-25.643426216440666,-25.425658244595454,-25.19630598071253,-24.875784219419003,-24.176434978423522,-23.466308962325993,-22.746077148408684,-22.014716579887747,-21.240275898829097,-20.38869056543665,-19.525368462616786,-18.649996486294008,-17.76005123257473,-16.814620743525253,-15.858009958597947
mp-1225601,Er4MnS7,Monoclinic,Cm,False,0.017587447222219055,-2.143735793541964,12.0,-25.16385773608117,-24.975922547220243,-24.790918160316863,-24.59907583656625,-24.395034617471723,-24.0992538641733,-23.431042480424104,-22.752015973643132,-22.062525064077885,-21.3615405763613,-20.647698290456386,-19.91866502377284,-19.169331998596213,-18.40474963886055,-17.624055938817058,-16.786421854974698,-15.93623109550635
mp-1225712,Er9MnS14,Monoclinic,Cm,False,0.03247555545976155,-2.2327809103367477,24.0,-52.3237752875212,-51.91252375477582,-51.507443718675,-51.089149020467005,-50.646998584740054,-50.021948445273395,-48.65310560478497,-47.26508367644412,-45.85660762771894,-44.425517537683035,-42.96964567518094,-41.48607516977216,-39.96925965844109,-38.42391055028299,-36.84603923308513,-35.14368757322603,-33.41662158787028
mp-1197880,ErAgS2,Monoclinic,P2_1,True,0.008720717604166595,-1.5571082744791647,4.0,-6.116164982385656,-6.0750560782753045,-6.036165406452786,-5.995864987565246,-5.9521698772152725,-5.882084174346042,-5.705373367819788,-5.52564103067316,-5.342352845803601,-5.1488506107779495,-4.9478826741468644,-4.742558786572017,-4.532815137036918,-4.318618007531088,-4.099380016165551,-3.8649151573047753,-3.6263426449304204
mp-1095614,ErAsS,Orthorhombic,Pnma,False,0.0,-1.7020504618750003,3.0,-4.976756026105541,-4.937953499139588,-4.901992031475273,-4.86562957314737,-4.827118308224507,-4.774533122594637,-4.667509761655022,-4.557696855330838,-4.4447361594470305,-4.328392015649216,-4.2085388169252465,-4.017592049821666,-3.8179472410582296,-3.615370416839209,-3.409232928606091,-3.1893067868754477,-2.966670169817622
mp-12454,ErCuS2,Orthorhombic,Pnma,True,0.0,-1.5879249959895851,4.0,-6.218506243183824,-6.172404830000507,-6.1286097457003486,-6.083485755916762,-6.035053098405001,-5.960327272844108,-5.779088278123782,-5.594947978724938,-5.407371021114485,-5.215966498293786,-5.016205980039597,-4.806318665632547,-4.592055119347643,-4.3733785138828,-4.149699394487986,-3.9108296826665914,-3.667886519539218
mp-1189243,ErPd3S4,Cubic,Pm-3n,True,0.017493002708331318,-1.0119104255729177,8.0,-7.996355467565358,-7.945625497482284,-7.899288461892483,-7.850092547812373,-7.794096886502069,-7.6853708252493735,-7.363529292651957,-7.035861312795242,-6.701386348069434,-6.359460429738181,-6.009661200127454,-5.6517097411171555,-5.285422463425505,-4.9106531623110214,-4.526720414929585,-4.100959107455317,-3.6595761603633363
mp-1190244,ErScS3,Orthorhombic,Pna2_1,True,0.017259182583333477,-2.273303330875,5.0,-11.213082149693408,-11.155183111395022,-11.098875332648529,-11.040127285394387,-10.97670756889434,-10.874544312994121,-10.61354311432627,-10.349264561899975,-10.081001374976776,-9.808259219440442,-9.53068434094976,-9.24801846480648,-8.960069374527128,-8.664215506108995,-8.36188462628322,-8.036030085910745,-7.70392655671543
mp-4123,ErTlS2,Trigonal,R-3m,True,0.0,-1.7340679395833258,4.0,-6.802483863212901,-6.75545114728288,-6.707420619696036,-6.6515627671823285,-6.59198789331035,-6.505831723700997,-6.312969608853026,-6.117101509842681,-5.917772914718462,-5.714686195229724,-5.507648310073783,-5.296532237356988,-5.0812575831743185,-4.861774046626763,-4.584951363512035,-4.248718779269895,-3.909008691278393
mp-1103889,Eu(AlS2)2,Orthorhombic,Cccm,True,0.0,-1.6556732408928565,7.0,-11.456410695416844,-11.398151225279301,-11.342975610134872,-11.284880276591261,-11.220532526505519,-11.104257341495842,-10.759983084390925,-10.403062491914334,-10.038849569612296,-9.668641885416768,-9.292222879420443,-8.90948789817495,-8.520415441857828,-8.125032786792628,-7.618594856566181,-7.1133911851054705,-6.602746282767418
mp-510243,Eu(BS2)2,Monoclinic,P2_1/c,True,0.001777052900002296,-1.205792357261903,7.0,-8.325014444120194,-8.279495638577071,-8.240509928841696,-8.201108516875458,-8.157504747961841,-8.063857774833727,-7.7598248300923185,-7.452523173444012,-7.139089989167499,-6.8206300691155475,-6.496773461661918,-6.167286995972139,-5.832041383448276,-5.49097476738803,-5.039271594101958,-4.589146774518667,-4.1338709246073435
mp-1192923,Eu(BiS2)2,Orthorhombic,Pnma,True,0.005693885714290303,-1.150746280714284,7.0,-7.916742376962697,-7.856472870456184,-7.7744066675617365,-7.669906832188201,-7.55929346196399,-7.397407680912851,-7.024333731015688,-6.6474687082228705,-6.2641405000312105,-5.875605217151327,-5.4815882595660455,-5.081929006578205,-4.676560355421884,-4.26547227092143,-3.7438865108866146,-3.2240594434673575,-2.5982573834461427
mp-1193960,Eu(DyS2)2,Orthorhombic,Pnma,True,0.0,-2.4343230491071415,7.0,-16.71603689610666,-16.607990015373353,-16.502483900033734,-16.393863217354685,-16.279035721076976,-16.112537824647568,-15.734217463885788,-15.351218845691903,-14.960577584152343,-14.563243006539889,-14.158642020843786,-13.746309295790116,-13.32587301803616,-12.89253277048164,-12.332263277718704,-11.771130308322231,-11.202574452868848
mp-541052,Eu(ErS2)2,Orthorhombic,Pnma,True,0.0,-2.4332578011309516,7.0,-16.719816463242267,-16.614403501491072,-16.511268051778128,-16.40475892709244,-16.29180046406331,-16.126951877609436,-15.750110852215737,-15.36852316497474,-14.979388185997127,-14.583835581468465,-14.181482962596116,-13.772070211351725,-13.355420363332858,-12.931411448866271,-12.394011144816497,-11.834998024857647,-11.26978500687112
mp-1181942,Eu(GaS2)2,Orthorhombic,Fddd,True,0.0,-1.3381703385714283,7.0,-9.18395606183057,-9.082669404544273,-8.984456237945757,-8.88373999802242,-8.777507207235558,-8.620383412058,-8.252330555667731,-7.8806773295999255,-7.502710164130065,-7.1196457856085,-6.731199229712731,-6.3372057300234665,-5.9375898923305055,-5.532335462875011,-5.016660053744612,-4.50281381450603,-3.9840943083223306
mp-675143,Eu(GdS2)2,Tetragonal,I-42d,False,0.006347689642861809,-2.3644385673214288,7.0,-16.253929714435948,-16.150981082529306,-16.050558705988887,-15.946797893113859,-15.836527628924458,-15.674265671118052,-15.299895194152107,-14.920684776590862,-14.533860735738878,-14.140563102087048,-13.740411559703801,-13.333168792032525,-12.913483973448812,-12.474214353847245,-11.92323443498741,-11.372862770851238,-10.816461183294846
mp-1193160,Eu(HoS2)2,Orthorhombic,Pnma,True,0.0,-2.3969141285714266,7.0,-16.453792373144925,-16.345960383553393,-16.24065672218915,-16.132279950706813,-16.017818664428727,-15.851786475330139,-15.473960841954108,-15.09143829539638,-14.701252376882307,-14.30435241368467,-13.900163240931661,-13.488231964515746,-13.06818055251102,-12.639683894859736,-12.083708683817424,-11.52053325986132,-10.950589973945316
mp-1105168,Eu(InS2)2,Orthorhombic,Cccm,True,0.0,-1.2833893840476196,7.0,-8.786887204606728,-8.699623437125496,-8.609656096539739,-8.516265332315646,-8.416570330022765,-8.265310643492576,-7.902543567512124,-7.535653760865383,-7.161971183910229,-6.782758165940476,-6.397762908410682,-6.006845519234362,-5.609961697117306,-5.207111771189217,-4.69353408214838,-4.181499508172189,-3.6643139038679617
mp-34255,Eu(LuS2)2,Tetragonal,I-42d,False,0.05953349571428035,-2.324966557083331,7.0,-16.119082755796413,-16.05418172079712,-15.992325156430683,-15.927772742660242,-15.857363828811371,-15.735578861082244,-15.402234682376193,-15.064506592509478,-14.71952763003865,-14.368359056734086,-14.010554225110084,-13.64578668558418,-13.273821433644052,-12.894474313784478,-12.402799182068824,-11.910882432039575,-11.398067126160186
mp-3627,Eu(Mo3S4)2,Trigonal,R-3,True,0.0,-1.037193663166666,15.0,-15.663265667092135,-15.64246696537639,-15.631037575300711,-15.615496168633015,-15.588552595601909,-15.458714156041523,-14.90542194932765,-14.343176574430633,-13.768193754559771,-13.180937422123074,-12.58059972136228,-11.966629178962542,-11.33867145982283,-10.696483263861232,-9.935098266977189,-9.166615367169967,-8.384196093214278
mp-695771,Eu(Ni3S4)2,Trigonal,R-3,True,0.07913443366666328,-0.7964581643333333,15.0,-11.766622832913534,-11.66853099034244,-11.573440630215174,-11.465762324595019,-11.342583806283011,-11.11383021208276,-10.459234914780428,-9.793391792094347,-9.112529004400221,-8.41716023277165,-7.706502495783169,-6.980060287368737,-6.237547676842517,-5.478808424287379,-4.553492985413111,-3.6003717615614477,-2.6308267302815267
mp-1194437,Eu(SbS2)2,Orthorhombic,Pnma,True,0.04044306369047135,-1.0357625067857137,7.0,-7.133218228420218,-7.0787178531785795,-7.027446433204704,-6.973512329603896,-6.913620155732394,-6.802121840402263,-6.434966267766759,-6.061387088681167,-5.68058398418533,-5.293850376489066,-4.900965559962925,-4.501820735436418,-4.096390257364941,-3.6846931106277836,-3.1619904373949677,-2.6862939045675347,-2.0753141965190682
mp-38971,Eu(YS2)2,Tetragonal,I-42d,False,0.021692125714292132,-2.3832394487499875,7.0,-16.51007324454237,-16.440753122740603,-16.374108502301855,-16.30433065877407,-16.22824443145537,-16.100371723765242,-15.760597783022225,-15.416189114929493,-15.064380328235869,-14.706350837792504,-14.341778367777701,-13.970469131717234,-13.592324933929184,-13.207302573460844,-12.707669981102217,-12.192512565786789,-11.671035026501823
mp-1193935,Eu2BiS4,Orthorhombic,Pnma,True,0.0,-1.6739696525000016,7.0,-11.488350124773778,-11.404833285418473,-11.311783832175102,-11.20609605142233,-11.094436726801934,-10.93155474002021,-10.557489766545125,-10.179404669026543,-9.79270682918317,-9.400375941702405,-9.002168499483076,-8.597953938313497,-8.187688993329992,-7.771384357967587,-7.139475553833522,-6.51643431934254,-5.838282993529582
mp-1192020,Eu2CuS3,Orthorhombic,Pnma,True,0.0,-1.793328977500001,6.0,-10.464138470709216,-10.370862443331497,-10.281207074226433,-10.1898521749524,-10.09394677343834,-9.959128126561469,-9.665173503216526,-9.367188216319114,-9.060661405336914,-8.748592241201727,-8.426491027223555,-8.09265041447653,-7.752904623731855,-7.407311903179817,-6.846344758263363,-6.294501347964548,-5.738342340175068
mp-1103850,Eu2GeS4,Monoclinic,P2_1,True,0.004190160952382449,-1.6494947614285707,7.0,-11.320705256190669,-11.238932739553785,-11.160464837613594,-11.07957884965231,-10.993174237966434,-10.855814363196803,-10.5074114198558,-10.155018408956762,-9.793957724914677,-9.398837812999929,-8.994515440765436,-8.584156929525761,-8.167719014417228,-7.745214461735937,-7.107079829519651,-6.477787892613653,-5.843878687104233
mp-572604,Eu2Re6S11,Trigonal,R-3c,True,0.02340743019737168,-1.1205186888157896,19.0,-21.31050913441861,-21.24686852816265,-21.19191449677206,-21.129807360065087,-21.051912537942496,-20.83318538420051,-20.033308208691903,-19.222416069053565,-18.39430717711332,-17.55091028715033,-16.691298606886765,-15.81488225592473,-14.921367978025946,-14.01059535353302,-12.872946314120327,-11.732864715513744,-10.576938913051919
mp-22504,Eu2SiS4,Monoclinic,P2_1/m,True,0.0,-1.7671987987499977,7.0,-12.095809810471076,-12.002812089483882,-11.913459968838813,-11.821879428960237,-11.724897382007322,-11.577044022843848,-11.218221181676862,-10.855499478838768,-10.484218928063612,-10.107306366081602,-9.724480974292357,-9.335587314151404,-8.94055621003173,-8.534746855135172,-7.887045307421761,-7.248210292920902,-6.604779774857821
mp-632490,Eu2SnS4,Orthorhombic,Pnma,True,0.0,-1.6829231953571429,7.0,-11.548193618127677,-11.463183078659016,-11.366769168189789,-11.266570119826124,-11.160416110483368,-11.002986581022087,-10.634287004702651,-10.261466770577996,-9.879930151075223,-9.492651658729073,-9.09939607788263,-8.700041135768476,-8.29454874967561,-7.882935831622248,-7.255641012507229,-6.637142249328505,-6.0139795781723695
mp-559134,Eu3(AsS4)2,Trigonal,R-3c,True,0.0,-1.3346321300000017,13.0,-17.057557050645425,-16.933354710656083,-16.813722873464567,-16.68850790730898,-16.55219153037767,-16.3142815063772,-15.654842486567743,-14.988369417515425,-14.307537335201694,-13.616519125041563,-12.91481902947903,-12.06715404028403,-11.198307184670536,-10.319863702133965,-9.117398148200465,-7.927551042643344,-6.7300847466930165
mp-684111,Eu3Sb4S9,Orthorhombic,Pnma,True,0.0,-1.2406575718750004,16.0,-19.51822941778407,-19.37795115410522,-19.245218152064616,-19.10652383186809,-18.954361643888888,-18.686008490714244,-17.85331069842065,-17.006387591024946,-16.14151927069264,-15.26289585353448,-14.370029674521103,-13.462686781953963,-12.540820772519528,-11.604487995609283,-10.339431891486157,-9.173907763928163,-7.7365977857505825
mp-504621,Eu3Sn2S7,Orthorhombic,Pbam,True,0.0009423079166204218,-1.466764371223957,12.0,-17.188693834525996,-17.038451714915947,-16.86431550220204,-16.683244964601307,-16.491816232283696,-16.210815142007206,-15.560304082522624,-14.90292980962952,-14.231620128096306,-13.550720791301325,-12.859807621701236,-12.158652427118753,-11.447174154356183,-10.72538824781709,-9.67895081337625,-8.644585795053615,-7.602112460953677