,pretty_formula,crystal_system,spacegroup,experimentally_observed,"energy_above_hull, eV/atom",Ef,total_atoms,Gf_400,Gf_500,Gf_600,Gf_700,Gf_800,Gf_900,Gf_1000,Gf_1100,Gf_1200,Gf_1300,Gf_1400,Gf_1500,Gf_1600,Gf_1700,Gf_1800,Gf_1900,Gf_2000
mp-560635,Cs2MoS4,Orthorhombic,Pnma,True,0.0,-1.177885469464286,7.0,-8.110917170683932,-8.03782127299326,-7.9663644461323555,-7.891112117071682,-7.809159633478515,-7.675216492698885,-7.254824779901749,-6.758941729919179,-6.259843667828951,-5.756884854313178,-5.2496310790525715,-4.737778693936384,-4.221131042382037,-3.6995537175498896,-3.172958325412635,-2.641294657968471,-2.1045338545839947
mp-28486,Cs2Ni3S4,Hexagonal,P6_3/mmc,True,0.0,-0.9659224271455934,9.0,-8.441840902660635,-8.337917191884122,-8.236447321809852,-8.12796735946705,-8.010194939095086,-7.837672384316257,-7.375570081034731,-6.834572116673344,-6.286768499340193,-5.731407169243928,-5.167984342607781,-4.59616602615125,-4.015749568546834,-3.4266122057893256,-2.805944532598062,-2.1670082715628283,-1.518861142145667
mp-510268,Cs2Pd3S4,Orthorhombic,Fmmm,True,0.0,-0.8859784679166675,9.0,-7.744887357033586,-7.64756149386551,-7.554999675058279,-7.458978574989407,-7.355113946776847,-7.197285834932153,-6.7505620187367015,-6.225620367030137,-5.6945819808365385,-5.156725893280566,-4.611588741376245,-4.058867624759069,-3.498378547851136,-2.9299863094808334,-2.3535979887951477,-1.7467588757777364,-1.1245929178017349
mp-13992,Cs2Pt3S4,Orthorhombic,Fmmm,True,0.0,-0.8838742279166669,9.0,-7.761820303528615,-7.67375449039467,-7.5906423884091545,-7.504220251158785,-7.41008828530352,-7.262101661022107,-6.825315720429531,-6.31039900449063,-5.789463286354692,-5.261775161979973,-4.726871268380499,-4.1844455959001685,-3.6343203675442695,-3.0764008029320014,-2.5106468391675243,-1.9370621794593674,-1.3556813790471658
mp-653954,Cs2Re2S5,Trigonal,R-3c,True,0.004085704259273015,-1.0651362431641127,9.0,-9.490567246504613,-9.420741726998413,-9.353787729699352,-9.282436481506068,-9.202777384290203,-9.058019393793032,-8.573593039982576,-8.01228066389622,-7.446111124240593,-6.874291422218289,-6.296297563657141,-5.711772235589649,-5.120506049889839,-4.522362250740308,-3.91727538269717,-3.3052180560529316,-2.6862035792213206
mp-27146,Cs2Sb4S7,Monoclinic,P2_1/c,True,0.0,-0.6599750213221157,13.0,-8.450549612127702,-8.360243141949304,-8.275451362784507,-8.185104438280042,-8.083039426832572,-7.889149126091764,-7.160786885042821,-6.348315401715835,-5.527211183823599,-4.6965939997163115,-3.8559426992899013,-3.0049522501654593,-2.1434872984614692,-1.2715017420140207,-0.38904440696125775,0.412337206563862,1.4837482296872189
mp-1226852,Cs2Sb8S13,Triclinic,P-1,False,0.0,-0.5076473989809791,23.0,-11.68688331380541,-11.594693932622256,-11.51230245078279,-11.420302358153894,-11.307771492523194,-11.026160419238263,-9.804823140050857,-8.489285610089091,-7.157662218973826,-5.808453036092625,-4.440788007623496,-3.0541772095616753,-1.6484242213850635,-0.22348415142255362,1.220514201693483,2.5004639439798666,4.318570445951501
mp-1103520,Cs2SiS3,Monoclinic,C2/m,True,0.0,-1.321146749739583,6.0,-7.719243973707739,-7.635398603762768,-7.554255614638004,-7.470654428193938,-7.3818497882738985,-7.253560829767229,-6.891144963559654,-6.453568206303107,-6.013247717364736,-5.569643257405321,-5.122394268979297,-4.671257879504271,-4.216080850560907,-3.752138303428559,-3.257842837865363,-2.7594773462316127,-2.257053291879446
mp-505141,Cs2SnS14,Monoclinic,P2_1/c,True,0.0,-0.4055822859926466,17.0,-6.873274255920087,-6.763236372471221,-6.635015466840036,-6.492492777059335,-6.331295097130425,-5.99560335743381,-4.8525224040047075,-3.632795208951485,-2.4071944028491323,-1.1740555216618418,0.0677465707235676,1.318987505301422,2.580164420748048,3.85160536235054,5.133501163415815,6.4259465143456715,7.728972417012521
mp-1202720,Cs2TeS3,Monoclinic,P2_1/c,True,0.010954089750000229,-0.9916992678711688,6.0,-5.776716071361011,-5.699742331903993,-5.624805584864834,-5.546884133795489,-5.4434140978826,-5.293119742346649,-4.907688995770417,-4.446394658243673,-3.9818000258387514,-3.5134571015338913,-2.9829745458966954,-2.463864474166707,-1.9411459545007403,-1.414719697648021,-0.8845265201879489,-0.35054056182496574,0.18724640626892253
mp-680170,Cs2Ti2S9,Trigonal,R3,True,0.0,-1.3245326806520763,13.0,-17.06476541627529,-16.954287979048416,-16.843933721201218,-16.724894297803957,-16.592405948473168,-16.345471177030472,-15.550066434497655,-14.676700555610001,-13.79407386525394,-12.89927161864293,-11.99658688549981,-11.085408886438373,-10.165323467763638,-9.236030601831065,-8.297325189298164,-7.349063793882886,-6.381743606063759
mp-3247,Cs2TiS3,Orthorhombic,Cmcm,False,0.0,-1.6237442975239453,6.0,-9.48358919337488,-9.385091292289683,-9.288331891628768,-9.18834940791502,-9.082538503113753,-8.936692935112703,-8.556178406241864,-8.099903929473836,-7.638949668787887,-7.17194105826553,-6.701085815322587,-6.226121375196524,-5.746871697996278,-5.263210547277202,-4.775048164917976,-4.282324488415432,-3.7802937649741306
mp-17361,Cs2WS4,Orthorhombic,Pnma,True,0.0,-1.2066535719642875,7.0,-8.341362367195162,-8.275546026423696,-8.211466180952122,-8.143702767778365,-8.069348025278108,-7.943101086492045,-7.53049574514487,-7.04248612677705,-6.551348556466367,-6.056439367756001,-5.557333678201456,-5.053737167566791,-4.545467689296881,-4.0324074194406325,-3.5144876561508642,-2.991679956466964,-2.4639772247967393
mp-505633,Cs2Zn3S4,Orthorhombic,Ibam,True,0.0,-1.1527224862500007,9.0,-10.003951789810095,-9.871700711107,-9.744114179433565,-9.610238911142734,-9.437075848760138,-9.208954329433494,-8.691234405854555,-8.094836471607737,-7.435905051047184,-6.524636936534735,-5.60865292324371,-4.687587924977615,-3.7612144160761503,-2.8293909767845093,-1.8920402327076573,-0.9491285755549264,-0.0006594676499673824
mp-667308,Cs3(FeS2)2,Orthorhombic,Pnma,True,0.005357636055553172,-1.0378648196072797,9.0,-8.994338757528306,-8.860170967094113,-8.729067474946241,-8.592502317746506,-8.445678749260626,-8.241916105081668,-7.708193342394313,-7.057974255311558,-6.395046006939683,-5.725645188572997,-5.049272162156875,-4.365595007271871,-3.6744100361599514,-2.9755986305380446,-2.2690927438859205,-1.5375617787436084,-0.7975495923147768
mp-30222,Cs3BS3,Monoclinic,P2_1/c,True,0.0,-1.2502025811617392,7.0,-8.371186987000637,-8.239524777376545,-8.112432664130235,-7.983198155384676,-7.848280230459739,-7.672974488167995,-7.22516431025301,-6.665381476812948,-6.102512148651352,-5.535916286818265,-4.965173672806596,-4.389995686748339,-3.8102038095952317,-3.2256869541946465,-2.6363800462062628,-2.0422567155305487,-1.4433145305127049
mp-1193282,Cs3FeS3,Orthorhombic,Cmce,True,0.0,-1.112384786280788,7.0,-7.411049313168161,-7.275932333667646,-7.14313846914884,-7.006253719728287,-6.861767121211324,-6.6748239899832,-6.2129656857115085,-5.637316826759433,-5.0543611279544525,-4.466994851326046,-3.8748205798388433,-3.277569385804979,-2.6750751873425855,-2.0672372616043653,-1.4539946799721353,-0.8266710231159067,-0.19353353860563516
mp-669313,Cs3Nb2S11,Monoclinic,P2_1/c,True,0.0,-1.2016622789978442,16.0,-19.053314642926527,-18.918897837712482,-18.785257366324075,-18.641516073229973,-18.48175418394981,-18.182518953975425,-17.192759886042897,-16.088718499328927,-14.978001008866313,-13.859102344985633,-12.731001080932892,-11.592996871269587,-10.444639104774229,-9.285624489443265,-8.11576911932001,-6.934976740945594,-5.743198636323257
mp-1226651,Cs3Sb5S9,Monoclinic,C2/m,False,0.0028266114705886025,-0.7033767604595582,17.0,-11.720302333824849,-11.58321725735287,-11.453333415318777,-11.316130221637625,-11.163553069056658,-10.892551712125908,-9.921156011131547,-8.826119198844193,-7.719996566356038,-6.601622690933013,-5.470303073348504,-4.3256263879406305,-3.16740487054723,-1.9955690652992573,-0.8101722182803641,0.2743542687725622,1.6968930327011122
mp-1193894,Cs3SbS3,Cubic,P2_13,True,0.0,-1.153687259419641,7.0,-7.746127845826239,-7.622810286903792,-7.5024107540891345,-7.378745335077194,-7.248518643224218,-7.077122665382371,-6.610586609071241,-6.0305004499634425,-5.446781597243083,-4.858884327138744,-4.266463044141723,-3.669291314216005,-3.0672424398399976,-2.460245754651858,-1.8482745322410121,-1.254200780494127,-0.5902421019586157
mp-1204783,Cs3SbS4,Orthorhombic,Pnma,True,0.0,-1.0957674642187492,8.0,-8.448741752174858,-8.322122316580574,-8.197890322397733,-8.069457272184037,-7.933288577968625,-7.743713731103152,-7.206911374752309,-6.556444047019244,-5.90207381277124,-5.243148411827676,-4.5792485958061135,-3.9100964830169964,-3.235531285650275,-2.555458620491132,-1.8698375787649866,-1.2015313671102845,-0.462753539157557
mp-556091,Cs3Ta2S11,Monoclinic,P2_1/c,True,0.0,-1.2260790641332617,16.0,-19.48614077116884,-19.36186588636421,-19.23817248644496,-19.104241455989623,-18.954198623461313,-18.66462233726785,-17.684489047339174,-16.59006100146266,-15.488963070420702,-14.379702621710265,-13.261276884326982,-12.133012460026187,-10.994512631974132,-9.845513492527523,-8.685858082923541,-7.5154646597307675,-6.334305233563136
mp-17054,Cs3TaS4,Orthorhombic,Pnma,True,0.0,-1.552262174537356,8.0,-12.14284858285244,-12.02679467702237,-11.91314894121441,-11.795362262346519,-11.669982966890501,-11.491442116390264,-10.987906227773266,-10.37196774016354,-9.752417583018715,-9.128553747492571,-8.499911382259217,-7.866179439852026,-7.22718054957242,-6.582800636025437,-5.93296977038159,-5.277657963445755,-4.616856661785199
mp-1200171,Cs3VS4,Orthorhombic,Pnma,True,0.0,-1.447616751745687,8.0,-11.22898602683578,-11.093679595294889,-10.960669399278515,-10.82339803426036,-10.678399316684754,-10.480080470193343,-9.956581064519721,-9.320463482302452,-8.680487560083176,-8.035923305391272,-7.386275810415379,-6.731198789050751,-6.07047030408587,-5.403944150779255,-4.731525525968607,-4.05316371184815,-3.3688283899439426
mp-1200467,Cs4(BS)9,Triclinic,P-1,True,0.0,-0.9863345878918479,22.0,-21.74989884997115,-21.717311799055732,-21.71514236520622,-21.717039294515466,-21.708831000923333,-21.584231250050642,-20.831663139381995,-19.923297463283618,-19.00247521029237,-18.067124642421014,-17.115923370225637,-16.147989843302092,-15.162793280362145,-14.16003215212843,-13.139571157999157,-12.10136695294038,-11.045480224992923
mp-1104686,Cs4Au6S5,Trigonal,P31m,True,0.0,-0.7830785799375045,15.0,-11.288784645830589,-11.115374931377268,-10.954384743623365,-10.7904568150716,-10.615459414357602,-10.370290368340418,-9.7045560870659,-8.883570249257716,-8.051761253670586,-7.207695846621419,-6.31302717665314,-5.38399446330472,-4.441736349658253,-3.4863023272574694,-2.5178102819826655,-1.5364246142427618,-0.5423509529316917
mp-1190726,Cs4In2S5,Triclinic,P-1,True,0.0,-1.2396128076420454,11.0,-13.061550948558377,-12.844488673148204,-12.626098438897815,-12.401917372131358,-12.167172992768943,-11.864701869582554,-11.145318132026503,-10.275153298442637,-9.399333840712487,-8.516997751064373,-7.627594991951059,-6.730761743137531,-5.826300241071991,-4.914097809937843,-3.994109341798289,-3.0663499574202855,-2.1308549238692827
mp-1200810,Cs4Nb2S11,Orthorhombic,Pca2_1,True,0.0,-1.2503541058012166,17.0,-20.960040785529266,-20.78758002553854,-20.616776633063367,-20.435589163854345,-20.237515583597492,-19.898801910510798,-18.830999277617106,-17.611962643343876,-16.385795207784703,-15.15091490313116,-13.906251005873045,-12.651068824022133,-11.38489764788067,-10.107422387543235,-8.818450655057099,-7.517884650728874,-6.2056752351518085
mp-652494,Cs4Re6S13,Monoclinic,C2/c,True,0.0,-1.0496079485269856,23.0,-23.916834900663495,-23.750551140898786,-23.592181049768328,-23.42305605567867,-23.233087286566175,-22.87462907520339,-21.67847087963062,-20.32578771959743,-18.95998288973582,-17.579044462749927,-16.181646355383144,-14.76688821713951,-13.334250261170581,-11.88339324953381,-10.414166144617575,-8.926507472264959,-7.420466098370838
mp-14578,Cs4Ta2S11,Orthorhombic,Pca2_1,True,0.0065836841176452054,-1.2780951138698442,17.0,-21.49233618421571,-21.334652518495425,-21.178431371350456,-21.011689338641233,-20.82796998899726,-20.50355043355252,-19.45000875252372,-18.24522063294898,-17.033307930671498,-15.812701015049239,-14.582347818321622,-13.341540595694255,-12.089862531857122,-10.827037921265067,-9.552901323159247,-8.267369447873719,-6.970413884612391
mp-579058,Cs4Tc6S13,Monoclinic,C2/c,True,0.0,-0.9735205005027173,23.0,-22.045962225524825,-21.851395547844223,-21.665339522785025,-21.468733808012207,-21.25119103946855,-20.864841680931445,-19.640319725861197,-18.258657166593775,-16.86315780042999,-15.451710202742795,-14.022901230110776,-12.57579322053882,-11.10977932701364,-9.624483000093498,-8.119709672084412,-6.595360557330218,-5.051434773060244
mp-542011,Cs4Ti3S14,Monoclinic,C2/c,True,0.0,-1.3535820149343174,21.0,-27.996263691859443,-27.770561446487967,-27.545659711527755,-27.3069793882975,-27.04667297572483,-26.607411744518103,-25.280836719319282,-23.800310872697338,-22.305304004884302,-20.79131373235675,-19.26469353650586,-17.724467177875823,-16.169976282303686,-14.600747151994277,-13.016456564755835,-11.416883419306643,-9.787771055496052
mp-680246,Cs4Zr3S14,Monoclinic,C2/c,True,0.0,-1.460803963505747,21.0,-30.359678270658343,-30.16270031343842,-29.967356156778486,-29.758889472376055,-29.52920090653918,-29.120790718938213,-27.82526884129915,-26.376110180688517,-24.909824491735428,-23.428603695730676,-21.935060796270967,-20.428291067607276,-18.90768588424224,-17.3728306249211,-15.823451816117661,-14.259374995924254,-12.680506327426926
mp-1195066,Cs7(FeS2)4,Monoclinic,C2/c,True,0.0,-1.0502855653992722,19.0,-19.136957582014738,-18.82985761370852,-18.529767275664874,-18.218470352489348,-17.885791091879753,-17.438066927748384,-16.29185740475137,-14.875703550365458,-13.433676675863993,-11.97817296569663,-10.508143846997884,-9.022891132379112,-7.521987347848025,-6.0051834589365995,-4.47233489060833,-2.888778901708747,-1.287602785235208
mp-561902,CsAg3S2,Monoclinic,C2/m,True,0.0,-0.4984883217708334,6.0,-2.816312461140849,-2.7535787757721675,-2.696330287205449,-2.638208303604757,-2.575795961827881,-2.485293818746853,-2.2487509989852885,-1.9711873099397907,-1.6884411681677491,-1.3811181082844373,-1.057881255281984,-0.728365437775067,-0.39261485736093427,-0.05071522763899594,0.29723095164816726,0.6511075498130552,1.0107875414990772
mp-1198931,CsAg7S4,Tetragonal,P4/n,True,0.0,-0.3151602257291681,12.0,-3.5654808342720035,-3.480926918546677,-3.408350806903586,-3.334737660107826,-3.253050611490451,-3.115534273785009,-2.72340147363418,-2.284898801008657,-1.8350901440058642,-1.3288954385195577,-0.7866434737888035,-0.23089561041653184,0.3381954897096868,0.9203982864201272,1.5154528494113393,2.123080277934342,2.742980918332485
mp-9384,CsAu3S2,Trigonal,P-3m1,True,0.0,-0.5703050509375013,6.0,-3.3059020271255024,-3.257945578094474,-3.2155831510713977,-3.1725026935943355,-3.125340200478271,-3.05037707017683,-2.8297401596036194,-2.5684865876544416,-2.302411240804288,-2.0309277585552046,-1.7349488383717215,-1.4226541603998442,-1.1046501898011076,-0.7809853286757207,-0.45173409314187296,-0.11698463026265848,0.2231577996465237
mp-1077383,CsAuS,Orthorhombic,Cmcm,True,0.0,-0.9088039259375004,3.0,-2.604734818978881,-2.5609533053574185,-2.519446959966445,-2.477200711127511,-2.432625316780834,-2.3739262530615544,-2.2235967043470852,-2.035055523913386,-1.8445138825203622,-1.6516894824396364,-1.4501624740306713,-1.2426193704244568,-1.032570897594514,-0.8200174186886855,-0.6049733902943348,-0.38746423019340703,-0.1675233945787422
mp-1228848,CsBS2,Orthorhombic,Immm,False,0.0,-1.09509039720546,4.0,-4.341453761123717,-4.316234807190998,-4.294354466952549,-4.271833411104745,-4.246534339961787,-4.1954178223844565,-4.0010145438976785,-3.768656843667555,-3.534392256692889,-3.297841276710913,-3.058755931600672,-2.816967742247197,-2.572372476843194,-2.3249063608927223,-2.074535466411562,-1.821245317017425,-1.5650383727924098
mp-29531,CsBi3S5,Orthorhombic,Pnma,True,0.0,-0.8575857757950192,9.0,-7.573261349472203,-7.498125165411384,-7.389278651456342,-7.246984775190797,-7.096395487069067,-6.881080420658005,-6.363919450383307,-5.806129907177166,-5.24330182505844,-4.674784196212773,-4.1001483780770585,-3.5191178992653818,-2.931547630344838,-2.3373712927742876,-1.736574216205966,-1.1291870510422477,-0.3637156174862497
mp-541378,CsBiS2,Monoclinic,P2_1/c,True,0.0,-0.994317064913794,4.0,-3.8614607071456435,-3.812510162943895,-3.7527333363385758,-3.6813068289997917,-3.606146717414204,-3.504554556088027,-3.2592745352360417,-2.975778912146331,-2.690210573426759,-2.402265672243482,-2.111743912280083,-1.8185130894902448,-1.5225000649826814,-1.2236669750247753,-0.921998547381909,-0.6175010342824567,-0.25967474521516287
mp-7015,CsCeS2,Trigonal,R-3m,True,0.0,-2.111773828906248,4.0,-8.243744128697678,-8.172274416835672,-8.101815495690271,-8.02889277762754,-7.951619779150725,-7.8470866229372636,-7.597869597455541,-7.304803969787919,-7.004939503258845,-6.701791597549477,-6.395226287897524,-6.085175628949736,-5.771617266910949,-5.454556868130948,-5.134021654026974,-4.810051042604469,-4.482694133319525
mp-540569,CsCr5S8,Monoclinic,C2/m,True,0.0,-1.0865989714039404,14.0,-15.180636575297356,-15.118006531109513,-15.061734900126012,-14.999738876133335,-14.925326115651728,-14.747204622027432,-14.107571173775815,-13.42270413132122,-12.727060274994887,-12.019076581361336,-11.297603757107469,-10.561749487615167,-9.810814712711942,-9.04422798100283,-8.261503648134294,-7.462235551095418,-6.6460363837098555
mp-7786,CsCu3S2,Trigonal,P-3m1,True,0.0,-0.6137026276041672,6.0,-3.601204275325988,-3.5625887764673276,-3.529722764196608,-3.496225781636694,-3.4586965121033733,-3.393369714676278,-3.182338044061412,-2.930646181988185,-2.6741294357223824,-2.412195226182849,-2.131676342040006,-1.8275659577653975,-1.5173514008307674,-1.2011090569607124,-0.8789352073146333,-0.5509397639968103,-0.2172435337806533
mp-7785,CsCu4S3,Tetragonal,P4/mmm,True,0.05364626041666831,-0.4759568329296844,8.0,-3.6219933336349093,-3.5514266754582984,-3.488055459936847,-3.4236256457613345,-3.3537164968549775,-3.2430539392483944,-2.933610781002378,-2.5822329721493897,-2.224483479251276,-1.859562350776427,-1.469905186246228,-1.0488305179214734,-0.6196501184937482,-0.18246186261215058,0.2626077749667779,0.7154146631085609,1.1757989352842841
mp-561033,CsCu5S3,Orthorhombic,Pmma,True,0.0325553620138912,-0.44716427552083043,9.0,-3.8425300514259173,-3.773476047998356,-3.713594027989526,-3.6531609507953373,-3.5869758622735475,-3.4793183509062704,-3.1718919424639846,-2.8213712928516674,-2.4632023722440533,-2.0964843930682857,-1.6993294185704357,-1.2634327864541017,-0.8179648049191677,-0.3630685543921981,0.10108511440911272,0.574309050071875,1.056400277394781
mp-18003,CsCuS4,Orthorhombic,P2_12_12_1,True,0.0,-0.5319115331249998,6.0,-3.0913541644161944,-3.0340476632095097,-2.9774763976709324,-2.9173887392386115,-2.851465404705041,-2.7347088372458237,-2.370049127437828,-1.9668186701264894,-1.5607760767181347,-1.1513173673957429,-0.7337750976328632,-0.30628593570837026,0.12544804249950658,0.5614882965270915,1.001855661865239,1.4465438694629924,1.895526427725473
mp-1199244,CsCuS6,Triclinic,P-1,True,0.0002720752343687849,-0.398661574609374,8.0,-3.1106927323133338,-3.0460187659379594,-2.981018865837995,-2.9106322331771457,-2.832061182093686,-2.6781831647621948,-2.1722271430497546,-1.627470636662875,-1.0793615683742024,-0.5270828855483405,0.03418016208863861,0.6063938015649484,1.1839241375792717,1.7668800633738897,2.3553107791676453,2.949227618406052,3.5486121873279863
mp-984555,CsDyS2,Hexagonal,P6_3/mmc,True,0.0,-2.122887440156248,4.0,-8.249628232911302,-8.168478365245875,-8.088670946067687,-8.006873378725862,-7.921295567763238,-7.8090867123976455,-7.552872849763068,-7.257999792622537,-6.960464290878732,-6.659809105978886,-6.355684695609794,-6.047806500436755,-5.735949026280091,-5.4176792184448646,-5.088358288087656,-4.754897187649311,-4.417383364515652