,pretty_formula,crystal_system,spacegroup,experimentally_observed,"energy_above_hull, eV/atom",Ef,total_atoms,Gf_400,Gf_500,Gf_600,Gf_700,Gf_800,Gf_900,Gf_1000,Gf_1100,Gf_1200,Gf_1300,Gf_1400,Gf_1500,Gf_1600,Gf_1700,Gf_1800,Gf_1900,Gf_2000
mp-19941,As2PbS4,Orthorhombic,Pnma,True,0.027496102857142546,-0.49918030392857105,7.0,-3.479061123518078,-3.450574606990791,-3.4253678308273967,-3.3891675424108545,-3.346872374893237,-3.2531068383168407,-2.947810074387916,-2.63849525927656,-2.3243413454119555,-2.004831110862334,-1.6796972106242611,-1.213774619170815,-0.7318850765613689,-0.24560169525982012,0.24513075298409426,0.7403386382699022,1.2400176554539382
mp-27594,As4(Pb3S5)3,Trigonal,R3m,True,0.0014710187499984428,-0.6562250631026784,28.0,-17.90679351519499,-17.693727486950372,-17.493591789804277,-17.20714903851526,-16.894534782429965,-16.38597427320122,-15.081479039565224,-13.759511383549075,-12.417277346511746,-11.053088928947133,-9.666007859303953,-7.985466277791965,-6.261004033698789,-4.515736399080332,-2.749590152286572,-0.9625924760276234,0.8451342114227458
mp-637982,As5Pb3S10,Monoclinic,P2_1/c,False,0.031186791145833226,-0.5075974405555547,18.0,-9.117092387805194,-9.050303871811266,-8.992435059816012,-8.902955764273488,-8.797827760373316,-8.563499016083519,-7.799752185370288,-7.025343638135514,-6.238216151646336,-5.437083256732034,-4.621284590067713,-3.4529163253245194,-2.244042455592904,-1.0236054095396696,0.20852313264665767,1.4523989868115592,2.708001236495541
mp-1228823,AsIrS,Cubic,P2_13,False,0.0,-0.698685137604168,3.0,-2.1066666503565705,-2.1039921135385002,-2.104725563523753,-2.105513015849512,-2.104532031586012,-2.089804638664009,-2.020936525995302,-1.9495638863386677,-1.8753274390885197,-1.7979987809042055,-1.7174709605231753,-1.5661781202415734,-1.4065468796951501,-1.2443733215736428,-1.0796371820415516,-0.9123317495342969,-0.7424599055439804
mp-1214793,AsOsS,Monoclinic,P2_1/c,False,0.0,-0.4430675251041644,3.0,-1.3514549787672743,-1.3518345381633696,-1.3557381645825122,-1.3598191285756158,-1.3622715741014484,-1.3511424034235655,-1.286056997633895,-1.218668132379746,-1.1486310370829975,-1.0757338912915295,-0.9998759623259916,-0.8535059025099949,-0.69905447720142,-0.5423270969648062,-0.3833097165478492,-0.22199977010810468,-0.05840635772087488
mp-10848,AsPdS,Cubic,P2_13,True,0.0,-0.4032741067708372,3.0,-1.1924521800470902,-1.1823423340152859,-1.1753906950282933,-1.1682868087056906,-1.1592496933390435,-1.136344906941505,-1.0592133770630023,-0.9795192800867119,-0.8969282097398423,-0.8112345641534753,-0.7223469385230565,-0.5627160580332662,-0.3947747609030525,-0.22431809339161823,-0.05131646378866428,0.13171675862880594,0.3197385306855276
mp-1228738,AsPtS,Cubic,P2_13,False,0.05232163791666622,-0.47107432468749266,3.0,-1.4072924118645496,-1.4001398848197433,-1.396208787082277,-1.3921751906747954,-1.3862529317361993,-1.366499276835376,-1.2925510078001188,-1.2160691917220041,-1.1367163130366413,-1.0542826241529792,-0.9686767202664641,-0.8123482901312418,-0.6477322448273268,-0.4806371042108566,-0.3110508958905953,-0.13897312688516283,0.03558295700800507
mp-1228745,AsRhS,Cubic,P2_13,False,0.0,-0.7309106001041693,3.0,-2.1897520959393306,-2.1835238408466964,-2.180484885714871,-2.1772294245543735,-2.1719122169637104,-2.152556327304171,-2.0787726266402173,-2.0022076720359614,-1.9225146200522136,-1.8394837230979215,-1.7530204670769338,-1.5955807593265927,-1.42960780237118,-1.260915298219499,-1.0895057845077813,-0.915388096129444,-0.7385889524788567
mp-1214786,AsRuS,Monoclinic,P2_1/c,False,0.0,-0.592539325937499,3.0,-1.7857892614989788,-1.7829133489542435,-1.7836858750965439,-1.784707252519599,-1.7841322408219145,-1.7699683579067813,-1.7018088555195967,-1.6312805985443406,-1.5580118692090252,-1.481767009159269,-1.4024266299661186,-1.2524155460509245,-1.094147939883034,-0.9334043476941871,-0.7701406677466203,-0.6043273870040187,-0.43594976763942306
mp-662553,B2Pb2S5,Tetragonal,P4_12_12,True,0.0,-0.766958227314815,9.0,-6.744467436837617,-6.681680608830759,-6.626159768491991,-6.552482025499659,-6.472158868060069,-6.328198184391051,-5.920346719416308,-5.507908553303665,-5.089811026389022,-4.66536892865043,-4.2341432532194485,-3.7958492372658963,-3.3503230956072745,-2.8974757482307023,-2.437281124052557,-1.9697449991424154,-1.4949097019689201
mp-8579,Ba(AgS)2,Trigonal,P-3m1,True,0.008285146999997828,-1.0633363036666659,5.0,-5.249475834056731,-5.218547018427091,-5.188705757110188,-5.155789931799291,-5.117344272760963,-5.050338004311579,-4.874697451694348,-4.685536502358625,-4.490580274384422,-4.277064650787706,-4.050904727307586,-3.8186448410507525,-3.5804114779227074,-3.3363404973544446,-3.0865667189868606,-2.8312161111862224,-2.5704099021359497
mp-14246,Ba(AlS2)2,Cubic,Pa-3,True,0.0,-1.754215888452378,7.0,-12.2365660695801,-12.199214719429296,-12.161701123841473,-12.118910966821879,-12.06778205859674,-11.963013532206737,-11.628929666944284,-11.272731673388964,-10.91000519931121,-10.540523223328565,-10.16419770291984,-9.781021409106797,-9.391040210051631,-8.994325948590822,-8.590968496748783,-8.181070001812092,-7.764729084102942
mp-30126,Ba(BS2)2,Monoclinic,Cc,True,0.0,-1.2728997647619036,7.0,-8.93737572458879,-8.925828185712898,-8.917567642214632,-8.906534553452904,-8.889212773080384,-8.820135605252442,-8.539356199033989,-8.24584028798746,-7.9469566986157245,-7.642285633457149,-7.33158565827162,-7.014721026694782,-6.691629818113373,-6.362294742338014,-6.026735194116849,-5.6849786977380745,-5.3370699791361425
mp-1228976,Ba(BiS2)2,Hexagonal,P-6,False,0.0,-1.1916274244444407,7.0,-8.287194443215615,-8.246314861419632,-8.180392482805605,-8.089679628679885,-7.990766905040074,-7.83886958733242,-7.474467834001517,-7.096807214853785,-6.713447259610208,-6.324119489667005,-5.9286778223931265,-5.527059061561543,-5.119263472390975,-4.705325586218723,-4.285302109292114,-3.8592620231206793,-3.3262457524521696
mp-38417,Ba(CeS2)2,Tetragonal,I-42d,False,0.048632280000001415,-2.278088172857141,7.0,-15.717082371941446,-15.631101944493075,-15.543752866466999,-15.449985080561515,-15.346784072807374,-15.188942254993268,-14.816603982071019,-14.419740843435587,-14.007726122241127,-13.587929832913868,-13.160338555931007,-12.72501761245164,-12.282068837886754,-11.831613823738433,-11.373794263557736,-10.908745470408313,-10.436605448972625
mp-1229162,Ba(Cr5S8)2,Triclinic,P-1,False,0.0,-1.1319853185185151,27.0,-30.796020557874286,-30.757406333472723,-30.728118703468922,-30.685891173402027,-30.618097509336778,-30.34276588439948,-29.21928163363591,-28.068502533125002,-26.894615900034513,-25.694834902557357,-24.46711546406915,-23.209874167199224,-21.921859434603952,-20.60203862229588,-19.249527692284524,-17.86357079560087,-16.443433125662388
mp-5970,Ba(CuS)2,Orthorhombic,Pnma,True,0.0,-1.1261967659999939,5.0,-5.538049827997423,-5.501166727412119,-5.465547374330207,-5.427015140417484,-5.383125120245849,-5.310869339603411,-5.130203143788302,-4.936257003138415,-4.736753962872698,-4.531464496876155,-4.311750143340099,-4.07439413660913,-3.8311517131717414,-3.582152513875722,-3.3275272126398496,-3.06739763210825,-2.801880854742201
mp-1193410,Ba(DyS2)2,Orthorhombic,Pnma,True,0.0,-2.420003788333329,7.0,-16.69184799620052,-16.601131506519923,-16.509709681802903,-16.412816446713858,-16.307630063362723,-16.14906109661898,-15.77735339876565,-15.391499650559025,-14.99876710830973,-14.598580509976138,-14.190495280933623,-13.77414351437838,-13.349220764952367,-12.91097118206822,-12.450204438755678,-11.980798916949205,-11.50296931719071
mp-1192439,Ba(ErS2)2,Orthorhombic,Pnma,True,0.0,-2.424262989285713,7.0,-16.731635760338655,-16.643237453265805,-16.553870557801083,-16.458773144331033,-16.355140057854108,-16.19790466471153,-15.827360565851905,-15.442602012223801,-15.05106001616208,-14.652339654537908,-14.246187055944766,-13.832439526824446,-13.410987470759146,-12.981753484588559,-12.543540193614811,-12.075938784871589,-11.60113628620558
mp-27660,Ba(FeS2)2,Tetragonal,I4/m,True,0.09490733999999978,-1.1497492314285702,7.0,-8.017356746846374,-7.982114911948273,-7.945666109635655,-7.902547783254581,-7.84930389942865,-7.7401671974585895,-7.414506782257363,-7.072474063917444,-6.716632976989586,-6.353636325971006,-5.983288279565052,-5.605492475767633,-5.220211868298289,-4.827449895578297,-4.427234243800077,-4.002292338790916,-3.569208264934776
mp-849286,Ba(GaS2)2,Cubic,Pa-3,True,0.0,-1.4611138246428585,7.0,-10.130124231600727,-10.048547425807046,-9.966798010271022,-9.880188678377593,-9.785976460957212,-9.639161055905218,-9.280100322863289,-8.907971427222652,-8.530292441482956,-8.146755502680161,-7.757204163877873,-7.361571083126937,-6.959848234201818,-6.552063929856604,-6.138270730616495,-5.71853139940782,-5.292917609358902
mp-1192904,Ba(GdS2)2,Orthorhombic,Pnma,True,0.03070308285714418,-2.4368039778571426,7.0,-16.872252612307463,-16.79556414610628,-16.718155834841202,-16.635052244208918,-16.54335286759884,-16.397949614130845,-16.039121574726085,-15.665985801804855,-15.286000254895878,-14.898780375175651,-14.504074364098734,-14.101742329578638,-13.686500813975607,-13.251251633697157,-12.808704238940464,-12.358989797047037,-11.902244239838275
mp-1193583,Ba(HoS2)2,Orthorhombic,Pnma,True,0.0,-2.4195896617857104,7.0,-16.686247576985767,-16.59516611490453,-16.50336688062047,-16.406137693185702,-16.300737656291773,-16.142054533336427,-15.770261699326426,-15.384304159213533,-14.991447096447303,-14.591115248986114,-14.18286196934427,-13.766331787884361,-13.341214040665154,-12.907228184141825,-12.450175859007484,-11.978148019098956,-11.49835112533542
mp-21943,Ba(InS2)2,Orthorhombic,Fddd,True,0.0,-1.363193132440475,7.0,-9.445041646219053,-9.380978839128485,-9.310966358503274,-9.235173611207129,-9.150990291178775,-9.013530103672199,-8.66324625993814,-8.299371892616612,-7.9294686042896725,-7.55327413493673,-7.170665203398475,-6.7815993420585325,-6.386099617607368,-5.9842109256876,-5.576006555435102,-5.1615699983868595,-4.7409812191154685
mp-33615,Ba(LaS2)2,Tetragonal,I-42d,False,0.013217995000003313,-2.433105430714284,7.0,-16.918990625141298,-16.862723202148445,-16.805286123240272,-16.741892584470513,-16.670191387411204,-16.544929340907565,-16.20626116421676,-15.853183683817225,-15.488378987340502,-15.104070693399994,-14.712512574264366,-14.313722275288194,-13.907774684688597,-13.494760301051656,-13.07479387073457,-12.647989978190328,-12.214463826629652
mp-984052,Ba(LuS2)2,Orthorhombic,Pnma,True,0.0,-2.4152828083333304,7.0,-16.848457407848457,-16.80616550584976,-16.763671974053793,-16.716125749821224,-16.660636690846815,-16.552059394751225,-16.230606620901494,-15.895302142969921,-15.553510641737235,-15.204768789659408,-14.848758456636876,-14.485250617557279,-14.114077635892961,-13.735099922651639,-13.348206282334251,-12.953295721842883,-12.536485413606254
mp-5716,Ba(Mo3S4)2,Triclinic,P-1,True,0.00046367158330706815,-1.1633706986666936,15.0,-17.639095740630122,-17.63740958384885,-17.641846638277528,-17.639814833081584,-17.62429452685882,-17.504167170865855,-16.959269780942186,-16.395951429914188,-15.82065948321535,-15.232333283939274,-14.630293493713815,-14.014086063694272,-13.383424026764256,-12.738108649354793,-12.078008555802903,-11.403035257467437,-10.713124393088393
mp-866306,Ba(NdS2)2,Orthorhombic,Pnma,True,0.0,-2.3751344471428544,7.0,-16.4256997799261,-16.346695520245262,-16.266088376686202,-16.178755741809894,-16.081593968621227,-15.929269024383844,-15.561825766718375,-15.178130431856063,-14.78149111147054,-14.373048872483231,-13.945097907953603,-13.507773498101745,-13.06128733997517,-12.605856376685008,-12.141709361947125,-11.6690541589625,-11.18809924968984
mp-28967,Ba(PdS2)2,Monoclinic,P2_1/m,True,0.0,-1.1240792407142866,7.0,-7.842173099377492,-7.808103439305628,-7.7736994863282405,-7.734062502001474,-7.686320999769667,-7.585389690224434,-7.271572538619725,-6.943994888820092,-6.610135428964938,-6.269659348896343,-5.922381181622997,-5.56820871086294,-5.207106963196768,-4.839056575574043,-4.4640582869933105,-4.067186002009123,-3.6585564784780065
mp-36223,Ba(PrS2)2,Tetragonal,I-42d,False,0.020355943571429336,-2.3227717176190468,7.0,-15.998096895841304,-15.90409149980717,-15.808690506001465,-15.706756796957698,-15.595197089986089,-15.42868771665561,-15.047310846086086,-14.648098232464932,-14.236774923469286,-13.749153696649179,-13.250064372363653,-12.742459767237428,-12.226499756791346,-11.702351535470951,-11.170192035465437,-10.630200099920852,-10.08253860785245
mp-28129,Ba(SbS2)2,Monoclinic,P2_1/c,True,0.0,-1.1199227773214255,7.0,-7.8329971202527595,-7.804479904206842,-7.775945542998564,-7.74239165513076,-7.700793362328846,-7.605876744827383,-7.253986603243327,-6.886205062288001,-6.511963445225433,-6.131030584951037,-5.743314293221484,-5.34880319533641,-4.947539013735881,-4.539585299812101,-4.125038144172684,-3.7497218270782504,-3.2381211428676835
mp-1194376,Ba(SmS2)2,Orthorhombic,Pnma,True,0.0,-2.39721327107143,7.0,-16.586348220587936,-16.505852116345807,-16.421280204973144,-16.327582429168235,-16.221818897960233,-16.058873229024748,-15.679032804727205,-15.281414677487883,-14.872958591568905,-14.449785144388654,-14.009961447076773,-13.554628635685852,-13.089935081357838,-12.616116382953455,-12.133403367049631,-11.642022552596941,-11.142184494415169
mp-1193223,Ba(TbS2)2,Orthorhombic,Pnma,True,0.0,-2.420363607976189,7.0,-16.7090616172859,-16.62157940195556,-16.533192856926398,-16.438831196286063,-16.3354550317325,-16.17785470219333,-15.806228457008118,-15.419612507015552,-15.025383970162785,-14.623108538960697,-14.212495030503597,-13.793328929706592,-13.363002842566775,-12.911823363436408,-12.448196682938642,-11.976329213271704,-11.496410780644718
mp-1193579,Ba(TmS2)2,Orthorhombic,Pnma,True,0.0,-2.421322947500002,7.0,-16.70224649426707,-16.612533646553043,-16.522482360211352,-16.427258155491213,-16.32391699569964,-16.16720154395972,-15.797318341055282,-15.413351273629548,-15.022760374072321,-14.625192176476087,-14.220454995266332,-13.808456614161102,-13.38917035118525,-12.962603790482211,-12.528797055410784,-12.071916137378409,-11.604094688059298
mp-1228781,Ba(V3S4)4,Monoclinic,Cm,False,0.033629984698259285,-1.3643573641379305,29.0,-39.40353073354812,-39.26216487390951,-39.131987173379706,-38.98874043641552,-38.81904019018349,-38.44062720814435,-37.21293073472288,-35.95702148450893,-34.67736477857942,-33.371567024170844,-32.03797681921917,-30.675454049937642,-29.283256250212776,-27.86089928990772,-26.408075005304937,-24.924565471704696,-23.410190566470362
mp-1228772,Ba(V5S8)2,Triclinic,P-1,False,0.03649558240740003,-1.3518527048148146,27.0,-36.46651980284872,-36.35692224152381,-36.25496189282747,-36.13927395686277,-35.997999158289055,-35.649756435636576,-34.45450116074437,-33.23364041787405,-31.991859010849268,-30.726909051740254,-29.437243950578576,-28.121798505260205,-26.779880810929413,-25.411038624697426,-24.01498903828302,-22.59153587520509,-21.140524729979802
mp-29036,Ba(YS2)2,Orthorhombic,Pnma,True,0.0,-2.4145867478571432,7.0,-16.852864134923852,-16.812702871955015,-16.771971009919074,-16.725749081761506,-16.671132435149595,-16.563017124925345,-16.241684314870984,-15.90624898454573,-15.564177384922582,-15.215124341538294,-14.858896095957286,-14.495396286175467,-14.12459408449557,-13.746490856477811,-13.358189481349797,-12.946587981404578,-12.527665165594714
mp-1228706,Ba2(CrS2)5,Triclinic,P-1,False,0.014918250294118529,-1.31262990352941,17.0,-22.31784380960731,-22.254413880661538,-22.192143832575365,-22.118447058638896,-22.025922939265833,-21.801475107847505,-21.045387661079864,-20.259326512461115,-19.457476221881706,-18.638508128798588,-17.801486763886153,-16.94571630130116,-16.070662290868075,-15.175890971385403,-14.26103738921664,-13.32578609425643,-12.369820029805176
mp-532273,Ba2(Mo2S3)3,Hexagonal,P6_3mc,False,0.0,-1.3114289780882336,17.0,-22.4282053758447,-22.40441826098577,-22.384595608009413,-22.355311301473776,-22.3089004320066,-22.143191647250127,-21.49836643727753,-20.824274371077493,-20.135475196393497,-19.430986938695867,-18.710212523228122,-17.972778972258084,-17.218471574429746,-16.447154542319915,-15.658752604626155,-14.85322185604279,-14.030532849343182
mp-1228614,Ba2Ag8S7,Orthorhombic,Pmn2_1,False,0.006784527058823819,-0.7411342776960749,17.0,-12.433105196347274,-12.345568768190752,-12.266169471243627,-12.179522336356245,-12.076857619207898,-11.877095328792326,-11.299401253260118,-10.689202512514633,-10.06101946993906,-9.363531756434647,-8.620161574852794,-7.856872683741617,-7.073992424913964,-6.271914626949165,-5.451052177325884,-4.611810981589926,-3.754602075491256
mp-28134,Ba2As2S5,Orthorhombic,Pca2_1,True,0.0,-1.3684400245833328,9.0,-12.280536370017444,-12.236791543701983,-12.191098837614083,-12.137615607066119,-12.07275876597824,-11.940336326939935,-11.540957345078578,-11.117216567505029,-10.684682263196958,-10.243087940067834,-9.792388434851855,-9.19761483692385,-8.583748202268335,-7.962491957479678,-7.3338977637642415,-6.698017000135074,-6.054907541518816
mp-18309,Ba2CdS3,Orthorhombic,Pnma,True,0.0,-1.8491193462500004,6.0,-10.978069280419158,-10.925561019538303,-10.86905565251077,-10.795444215437604,-10.712700216736938,-10.58732944207285,-10.299999454168134,-9.92984728071271,-9.51406802583198,-9.092066519368458,-8.663884338923483,-8.229603014671563,-7.789317015090804,-7.343118790579085,-6.891107213372123,-6.433362139088752,-5.969958253343638
mp-18421,Ba2Ga2S5,Monoclinic,C2/c,True,0.0,-1.6675463002777775,9.0,-14.865237375614756,-14.763963543318186,-14.66035835195187,-14.548900450293502,-14.426201601203474,-14.236208698962729,-13.779624077446627,-13.29912539820871,-12.810343116058608,-12.31304805040902,-11.807166017939192,-11.292710747812531,-10.769746469563838,-10.23836444209303,-9.698673330285793,-9.150780480403967,-8.59479247960926
mp-1199702,Ba2GaS4,Monoclinic,P2_1/c,True,0.0,-1.7978759250000098,7.0,-12.468435812174532,-12.394828001771186,-12.317630470157393,-12.233046204546142,-12.138616217734004,-11.989729905496814,-11.627157626828486,-11.241724989883355,-10.84928193221783,-10.449739277710377,-10.043105371879395,-9.629442426592387,-9.20883776723286,-8.781388110970106,-8.347196803425451,-7.906357700441234,-7.458956985173227
mp-540805,Ba2GeS4,Orthorhombic,Pnma,True,0.0,-1.718322084285704,7.0,-11.972549506600794,-11.92992805691662,-11.884119021068894,-11.83117821313489,-11.768546112149457,-11.651534381598424,-11.320847048921589,-10.967234062844357,-10.606481102230074,-10.21014743372033,-9.803346859640287,-9.389440550244753,-8.968519976639376,-8.540687038146114,-8.106048189677889,-7.664701432799166,-7.216735023526801
mp-9321,Ba2HfS4,Tetragonal,I4/mmm,True,0.0,-2.2077809300000006,7.0,-15.419803089759016,-15.381573267969882,-15.339584786793388,-15.289876877418262,-15.22989623746255,-15.11496800400904,-14.785825224552426,-14.43326034146999,-14.073101527276949,-13.705244059393767,-13.329680736880842,-12.94646444373087,-12.555673177452576,-12.157397436632042,-11.751733311876865,-11.33876947687671,-10.918589005495761
mp-18008,Ba2HgS3,Orthorhombic,Pnma,True,0.013914367083334156,-1.6986693704166675,6.0,-10.019079708535525,-9.952230323818021,-9.882246143157492,-9.73841753933945,-9.556983554284642,-9.334081522602578,-8.9502494531994,-8.54427198738372,-8.132097403349448,-7.713701604162917,-7.289124094564398,-6.858448477589473,-6.421767148855178,-5.979174631620449,-5.530767725259945,-5.076628358253567,-4.616829143354913
mp-1194545,Ba2HgS5,Orthorhombic,Pnma,True,0.0,-1.4462754550000017,8.0,-11.444851725943822,-11.377152233591662,-11.305256775903786,-11.15764655539125,-10.97008221132059,-10.716576087300286,-10.197965063526697,-9.656978906169513,-9.10925520478896,-8.554556789632993,-7.992775859694412,-7.423893122701703,-6.847932793695001,-6.264941962227272,-5.674989062945201,-5.0781384218322,-4.47445455380813