,pretty_formula,crystal_system,spacegroup,experimentally_observed,"energy_above_hull, eV/atom",Ef,total_atoms,Gf_400,Gf_500,Gf_600,Gf_700,Gf_800,Gf_900,Gf_1000,Gf_1100,Gf_1200,Gf_1300,Gf_1400,Gf_1500,Gf_1600,Gf_1700,Gf_1800,Gf_1900,Gf_2000
mp-1216571,V2MoS4,Monoclinic,Cm,False,0.07889674000000113,-1.1688700199999988,7.0,-8.145295002215128,-8.111874014008366,-8.081880975731748,-8.049317496145656,-8.010918245091794,-7.921117029394351,-7.619726546234519,-7.314140782271068,-7.0034226097134615,-6.686934580688073,-6.364236266292421,-6.035017799832556,-5.699072160420558,-5.356256649772535,-5.006474582416905,-4.649657094602263,-4.285750451362425
mp-4909,V2NiS4,Monoclinic,C2/m,True,0.039554076190477794,-1.0841151442857122,7.0,-7.481376265754083,-7.429314867109446,-7.379620113528915,-7.3259422638220935,-7.265745634926102,-7.153700339826695,-6.829667787940135,-6.501057512383192,-6.16693445822639,-5.8266694690403735,-5.479826261644789,-5.12610429722049,-4.765307955615425,-4.397309048573161,-4.014447020590506,-3.6210982584731433,-3.2202457687172856
mp-1216499,V3FeS6,Trigonal,R-3,False,0.0836625214999982,-1.1199507684999994,10.0,-11.056723205432643,-10.983656889879951,-10.914005253870492,-10.839294814794012,-10.754755987736168,-10.59193306679791,-10.110221636600496,-9.621319130538787,-9.121423051187257,-8.613122488514213,-8.095789738988287,-7.568992204086166,-7.032445984602633,-6.485966769965033,-5.92943864729682,-5.354130809898898,-4.768261047091386
mp-676058,V3NiS6,Trigonal,R-3,True,0.05140036633333178,-1.0952715884999997,10.0,-10.82469391905693,-10.755020258131996,-10.688427546118596,-10.616310673728748,-10.534892956498958,-10.376280433879192,-9.900370322868799,-9.418349096609749,-8.928861270165509,-8.430991761871484,-7.924104576752043,-7.407758824839608,-6.881665424776294,-6.34563281097571,-5.791959435488508,-5.2249932085145865,-4.647696180139992
mp-1217039,V4(CrS2)5,Triclinic,P-1,False,0.0974839357309909,-0.9752852823684209,19.0,-18.371063142839322,-18.27228265137552,-18.185020262993902,-18.091763498632083,-17.982873477004098,-17.74347811758994,-16.972419185079946,-16.187633986165256,-15.386332661989142,-14.566524704769282,-13.726753188010107,-12.86590742497077,-11.983139150862435,-11.077777503990092,-10.149266446395515,-9.197140262368613,-8.220952535003654
mp-4474,V4GaS8,Cubic,F-43m,True,0.0,-1.2237455490384592,13.0,-15.775680090960975,-15.677773274829786,-15.584512620925336,-15.485556903559244,-15.375252068519963,-15.16296181566997,-14.528611914577962,-13.887189616313368,-13.236949062418079,-12.576713083894509,-11.905673957596147,-11.223273243878715,-10.529148092358636,-9.823063252299693,-9.104874255545575,-8.374489487340924,-7.631849574967887
mp-8688,V4GeS8,Cubic,F-43m,True,0.017355163413453667,-1.1430159357692384,13.0,-14.787501955605284,-14.720660564622712,-14.65886747091378,-14.59163427565437,-14.513206390871236,-14.332869784136848,-13.73048389346578,-13.120960310498532,-12.502488918083921,-11.845540989987509,-11.174414259869529,-10.491849246473022,-9.797487245136537,-9.091098187276529,-8.372540714028283,-7.641727356358569,-6.89860081441061
mp-696867,V4NiS8,Monoclinic,C2/m,True,0.0376270079487151,-1.1214310346153848,13.0,-14.459147193038165,-14.379150752502541,-14.302949564725868,-14.219683152322594,-14.124333829428604,-13.926443561958077,-13.305945374493454,-12.677802680201895,-12.040239564139815,-11.392055019407387,-10.73241333923369,-10.060733282502717,-9.376632306650745,-8.679855468761449,-7.962660228439297,-7.229366019278408,-6.482913934954684
mp-1216503,V6InS8,Trigonal,P3,False,0.07072969422221664,-1.1953537324444454,15.0,-17.75350951136437,-17.653932406400983,-17.55966387824843,-17.45989866231143,-17.347523838439802,-17.131081945105798,-16.490020300268405,-15.839017768949683,-15.176130774985978,-14.500059246017718,-13.809907229691309,-13.105053811846187,-12.385101127298917,-11.649790329509592,-10.898962059190858,-10.13251331767406,-9.35036316081068
mp-1216478,V7(CuS6)2,Triclinic,P-1,False,0.08456990142857812,-1.1150343842857136,21.0,-23.138855270374563,-22.996304238815522,-22.863767585108285,-22.723328904254494,-22.56521915297314,-22.252722132417734,-21.30525105979904,-20.344956802177386,-19.36897304536288,-18.375309713444672,-17.354069057052698,-16.30112512434061,-15.227608938461096,-14.13321470336539,-13.017772588580616,-11.881186900919602,-10.723405260689802
mp-1216961,V9InS12,Trigonal,R-3,False,0.06268296810605278,-1.2321750818939394,22.0,-26.912056134560718,-26.78308286869015,-26.66262226056537,-26.533912111572825,-26.386594900014696,-26.08364593475688,-25.144321085217438,-24.190684911632953,-23.219843236452252,-22.229851284428445,-21.219361273569564,-20.18743413157685,-19.133459790226276,-18.057036704694042,-16.957910903082265,-15.835911559401453,-14.690902958106328
mp-11193,VAuS2,Hexagonal,P6_3/mmc,False,0.0,-0.9561902165624998,4.0,-3.772119322793919,-3.7468752417302813,-3.724270183750975,-3.7006025829352827,-3.6738636569835306,-3.6210585412694245,-3.4619651618216,-3.300193310259905,-3.1351920865932508,-2.9665768024061965,-2.7878508458928746,-2.601646173239126,-2.411434237977357,-2.2171875406802855,-2.0189022098491574,-1.8165855341428845,-1.6102544836710235
mp-3762,VCu3S4,Cubic,P-43m,True,0.0,-0.8558000925,8.0,-6.8122535176292445,-6.780259535660225,-6.75384831043664,-6.7255483057018655,-6.691299463204686,-6.605073705762787,-6.306397865378507,-6.0024801245556745,-5.692238375492247,-5.374871112010811,-5.037060707742721,-4.673694332560833,-4.302185951207312,-3.9225603699786618,-3.534881359584162,-3.139231901756826,-2.735712268269909
mp-1045419,Y(CrS2)2,Orthorhombic,Imma,False,0.0653504233333333,-1.3676901692857137,7.0,-9.592083019498546,-9.572475336781668,-9.55622409028814,-9.537202371392217,-9.512003895383096,-9.434950534587358,-9.145744088119148,-8.85167697244498,-8.55171878102632,-8.245137750811022,-7.931407429162338,-7.6101319256520625,-7.281011977074821,-6.943809533537657,-6.596867045185924,-6.233455545661602,-5.861395062759552
mp-1216184,Y(CuS)3,Trigonal,R-3,False,0.0,-1.004389095491072,7.0,-6.952288259716896,-6.91517042344765,-6.8839804075547315,-6.851661625224078,-6.814384928087317,-6.7371919894763765,-6.499467460762222,-6.256463544906678,-6.007273170604666,-5.751222096698637,-5.475091224026475,-5.173845080877914,-4.864956596616368,-4.548495023001987,-4.223095601805774,-3.8823009114694074,-3.534206152094324
mp-1045339,Y(MnS2)2,Orthorhombic,Imma,False,0.04953445785713839,-1.4609088375307888,7.0,-10.215035099577843,-10.185536524512587,-10.1576676924023,-10.125357661870032,-10.085274771203366,-9.991836244337954,-9.683906444517067,-9.366134890347457,-9.041547764397697,-8.709715941331355,-8.36908068370057,-8.015836244622768,-7.640423890508574,-7.253463217731289,-6.856760427278374,-6.443893336229639,-6.022990828678854
mp-1104078,Y(Mo3S4)2,Trigonal,R-3,True,0.0,-1.046998139499999,15.0,-15.81651676403231,-15.797512275414304,-15.787849114811992,-15.773928837342998,-15.748366978057417,-15.619603468804712,-15.067024478142422,-14.505299543217806,-13.932518253644265,-13.347382609923297,-12.749029825478368,-12.136861787620653,-11.510484776888848,-10.869618181701846,-10.212605000651745,-9.532743281864747,-8.8379077219655
mp-1045465,Y(TiS2)2,Orthorhombic,Imma,False,0.08836373357142868,-1.854004144523808,7.0,-12.922633902120753,-12.883309617351406,-12.846589320238277,-12.806580335456129,-12.76010853873361,-12.661659558421553,-12.35100359804929,-12.035408199750545,-11.71126639068114,-11.376297980572259,-11.035235365312833,-10.68778215180585,-10.333734428454997,-9.972939132671033,-9.60382370190305,-9.21973171993034,-8.819159485470719
mp-1216047,Y2AsS,Trigonal,R-3m,False,0.0,-1.9052144250000005,4.0,-7.5724373691895455,-7.554233977616795,-7.540660592182734,-7.5269605606838095,-7.510565428332391,-7.479099597745798,-7.391936787044704,-7.300584388512269,-7.2046117280992625,-7.103755897977901,-6.997893815906493,-6.8194625891306355,-6.630896722434221,-6.4380064113684625,-6.237857795317126,-6.017316223777596,-5.792333786308051
mp-35785,Y2CdS4,Cubic,Fd-3m,True,0.0,-1.936081383571428,7.0,-13.52807673328044,-13.496092435809311,-13.466016681106597,-13.42232317204056,-13.372016568606824,-13.269657122154632,-12.955160136487963,-12.576276130369024,-12.153329311966237,-11.725143289528692,-11.291319091375227,-10.851598672338566,-10.405828905918515,-9.953914769635704,-9.492889701872008,-9.009597830532758,-8.519987908085039
mp-555795,Y2CrS4,Orthorhombic,Pca2_1,True,0.055218983154762036,-1.8653380130357138,7.0,-13.019062021795984,-12.98444009750564,-12.952820150196274,-12.918175805003873,-12.877169181632821,-12.784188483963835,-12.478999769804108,-12.16896696932696,-11.853129116839572,-11.530829072288205,-11.201615006034496,-10.865168759940236,-10.521271912381641,-10.169765182186284,-9.807608421168169,-9.421579425678509,-9.027547143033328
mp-16919,Y2HfS5,Orthorhombic,Pnma,True,0.008994699375001858,-2.1571819361328153,8.0,-17.220969047755432,-17.179768972769175,-17.140715887310648,-17.097431689335806,-17.04639422804018,-16.930983106191707,-16.55117911236629,-16.1663881800135,-15.775567585691554,-15.378031385227498,-14.973331828399239,-14.561182223857676,-14.141412974133239,-13.713927104934765,-13.275755273016008,-12.81375042435312,-12.343869699662719
mp-1001024,Y2MgS4,Cubic,Fd-3m,False,0.0030399257142939007,-2.1558512942857133,7.0,-15.027230210905756,-14.985828191617262,-14.94721049889776,-14.90537045006338,-14.856984674845956,-14.756444486417815,-14.436130338606265,-14.108519909835632,-13.775000786001437,-13.43507336449099,-13.057182535363289,-12.607573855047164,-12.15191582734765,-11.690114466215913,-11.219200100742217,-10.726021004554035,-10.226521784396322
mp-1216082,Y2MnS4,Orthorhombic,Cmc2_1,False,0.019137419285712554,-2.008020709390396,7.0,-13.992050785212658,-13.949733211686128,-13.909554268506389,-13.865515564433819,-13.814316530671999,-13.710393046906177,-13.39309245300812,-13.068457230221247,-12.737554707406316,-12.39987906336743,-12.054462326060676,-11.699281409120653,-11.329488155731589,-10.950352107854172,-10.560564992723474,-10.147057998409611,-9.725854500378064
mp-1245981,Y2Pt2S7,Cubic,Fd-3m,False,0.08114229590909261,-1.2412971422443155,11.0,-13.651615651505475,-13.606340051741132,-13.56407291848766,-13.5162326031301,-13.45808393708776,-13.310464214633997,-12.79341076053846,-12.270129249747647,-11.739178293853916,-11.199605715629218,-10.650794109541632,-10.092339234565362,-9.524000833496736,-8.945638246894774,-8.354263940538779,-7.736724148840349,-7.108980966869242
mp-1216058,Y2TeS2,Orthorhombic,Immm,False,0.0,-2.132069582333332,5.0,-10.672610606376786,-10.66289909537101,-10.657172998448921,-10.65027211470027,-10.619494503924711,-10.554365746348868,-10.3807094569501,-10.202295790991414,-10.018669320353935,-9.829538333090673,-9.576628672725374,-9.33354950509458,-9.085393373003834,-8.832117869832398,-8.570784280474854,-8.288258481055145,-8.00049317615197
mp-1194113,Y2ZnS4,Orthorhombic,Pnma,True,0.009398235918364861,-1.9669997830357135,7.0,-13.723967634915029,-13.68713776880119,-13.653040407729693,-13.61485008889538,-13.559775649108929,-13.452430715892033,-13.132754430950946,-12.808268261900034,-12.459428043585424,-12.022629027516828,-11.580192872162847,-11.131860495925666,-10.677477735874565,-10.21695164239124,-9.747313580996492,-9.255409752456721,-8.75718683637795
mp-1197050,Y2ZrS5,Orthorhombic,Pnma,True,8.927656250090621e-05,-2.1664399718749996,8.0,-17.262170790936043,-17.213024033983945,-17.16625020841583,-17.115476394340305,-17.057157639481183,-16.934644526551466,-16.54787638690572,-16.156214587480598,-15.75626785324598,-15.348729729068666,-14.934457330767906,-14.513154639119808,-14.0846334009052,-13.64877280393066,-13.202577594186604,-12.732868588302654,-12.25556976121837
mp-1207827,Y3CrS6,Orthorhombic,Pnnm,False,0.0037184634999993804,-2.0128663824999995,10.0,-20.014917437976514,-19.94854579091917,-19.88570490362478,-19.81812339743708,-19.741214099215576,-19.586808394318915,-19.114715403151138,-18.636092578799257,-18.149578217743574,-17.654249983305732,-17.149481208384916,-16.634839294457805,-16.110037233027583,-15.57487309420253,-15.024823026048221,-14.440087143770512,-13.844504317686578
mp-1189598,Y3GaS6,Orthorhombic,Cmc2_1,True,0.0,-2.019178933250001,10.0,-20.097139485705313,-20.020012616810313,-19.94626104309828,-19.867829999894393,-19.78028156005495,-19.615565262019395,-19.133592832814543,-18.645624332150224,-18.150393408115765,-17.64707100278083,-17.135123727792575,-16.614211226945148,-16.084138734059195,-15.54479656156045,-14.99175309983194,-14.405297597105395,-13.809364275307026
mp-1216054,Y3GeS2,Trigonal,P-3m1,False,0.0,-1.7860452550000023,6.0,-10.659650442263704,-10.633261994219321,-10.612773315190204,-10.59160080791469,-10.566162816795796,-10.512581129985016,-10.350103400374614,-10.182023778523346,-10.007633031094832,-9.798176688558623,-9.578521430863574,-9.351831650805334,-9.11805308908048,-8.877176107679368,-8.62482893573257,-8.341340172186895,-8.050662307497145
mp-1201568,Y3InS6,Orthorhombic,P2_12_12,True,0.01327209293750009,-1.9774609081249999,10.0,-19.650550551723523,-19.574783228992757,-19.49950266954881,-19.419082465456246,-19.329151021125497,-19.161714878675326,-18.676733440937088,-18.185494751245006,-17.686754222729597,-17.17970559893228,-16.66383207438871,-16.138805730059463,-15.604447346223164,-15.060655526749823,-14.503009026327796,-13.911807457494145,-13.310989187897217
mp-1216052,Y3SiS2,Orthorhombic,Immm,False,0.0,-1.870498491770834,6.0,-11.137896730536854,-11.105370721796593,-11.079085467717029,-11.052306052178661,-11.021378269447162,-10.962390741896975,-10.794580758115028,-10.621260087979135,-10.441737117471986,-10.255575768522945,-10.062505134927585,-9.862367849622494,-9.655083742540935,-9.435989602578992,-9.179163158789503,-8.891218961303407,-8.596107427714433
mp-1216108,Y4CdS7,Monoclinic,Cm,False,0.050116775833344285,-2.061700001458332,12.0,-24.655451999423715,-24.588948777420008,-24.525942248445006,-24.446820692919704,-24.35632938647708,-24.174977438922753,-23.622616843609265,-23.002612602695724,-22.334642793013558,-21.657107165971883,-20.969330727838326,-20.270878000328942,-19.56149277348593,-18.84101844424432,-18.103535225853108,-17.322740685175162,-16.530527469596734
mp-1216124,Y4CrS7,Monoclinic,Cm,False,0.060058967361111826,-2.042701917291666,12.0,-24.406205444885742,-24.335199989361932,-24.26878466107941,-24.196847662726867,-24.11379172964604,-23.93995392417404,-23.39503699366662,-22.842019351693985,-22.279293901226335,-21.70577964536996,-21.12074873243528,-20.52370557116742,-19.914328656484983,-19.292397126629957,-18.651917608283437,-17.966521336754198,-17.26802115427743
mp-1216063,Y4GeS3,Trigonal,R-3m,False,0.006998682500001685,-1.8883194578125,8.0,-15.01604626761007,-14.974669728208518,-14.940252325300545,-14.90437004296948,-14.862431134100554,-14.779063063823726,-14.533407111982967,-14.280578389620228,-14.019622269889044,-13.721625623043586,-13.41135394444396,-13.091908634154253,-12.763200936286477,-12.425202280964669,-12.072071375934957,-11.677567940247043,-11.27361843627375
mp-1216098,Y4MgS7,Monoclinic,Cm,False,0.021740122500017556,-2.220049059374999,12.0,-26.421437502920035,-26.32177473556671,-26.22648444504268,-26.125474526216777,-26.013162224458217,-25.809887711395696,-25.227968130405067,-24.635495643307586,-24.03321170466176,-23.420192855014932,-22.76460796237489,-22.03252515005379,-21.289509838399066,-20.535406460776283,-19.764292121142812,-18.94986853208369,-18.12402419526302
mp-1216113,Y4MnS7,Monoclinic,Cm,False,0.01961240416666854,-2.1554257782641884,12.0,-25.741679941264927,-25.665123405448703,-25.592293650239547,-25.51310686195059,-25.422003087422752,-25.239367064797676,-24.68448282349567,-24.119007328157068,-23.543361776305638,-22.956616489905496,-22.35752747486152,-21.74389421169166,-21.1107654601225,-20.46334918152917,-19.797383878013825,-19.086654176604135,-18.363127347684756
mp-677445,Y4SiS3,Tetragonal,I4/mmm,False,0.0,-1.9804996548046887,8.0,-15.702729302769114,-15.649643850565026,-15.603858520499955,-15.556797977799377,-15.503797925211192,-15.409452662088299,-15.152893103969337,-14.889251981215317,-14.617592286298844,-14.337319280933897,-14.048060874327302,-13.749596706684093,-13.441812111352952,-13.120024945363657,-12.756843416384605,-12.352313194649607,-11.938358669670428
mp-1207671,YAgS2,Monoclinic,P2_1,False,0.0037633403124974762,-1.5573829476041654,4.0,-6.212773617962084,-6.1960404635996955,-6.181724536187522,-6.166119087652184,-6.147189424930675,-6.101920991216569,-5.950073056788902,-5.795259558989656,-5.636963800035342,-5.468552451825591,-5.292803919396528,-5.112861119186891,-4.9286996245404495,-4.740325101806988,-4.546300296060279,-4.340092619294461,-4.129717176044139
mp-1102959,YAsS,Orthorhombic,Pnma,False,0.0,-1.7208608499305562,3.0,-5.130779880517876,-5.116873790092194,-5.106007753630536,-5.094860952447145,-5.081635821945055,-5.054388592262621,-4.9727487902139025,-4.888375410029411,-4.800927826853157,-4.710195256663555,-4.616082148933915,-4.451037155987857,-4.277495188905389,-4.101261658251049,-3.9208580424290655,-3.7297097695856936,-3.535790908444209
mp-10533,YCuS2,Orthorhombic,Pnma,True,0.0,-1.590968853906249,4.0,-6.3312837326804114,-6.310831097933436,-6.292883786731998,-6.27372779598899,-6.251333614794071,-6.202698087076678,-6.047594993143317,-5.889646561780232,-5.728335058773399,-5.563294451456979,-5.39002636609319,-5.206793167739727,-5.019384805031857,-4.827803835027763,-4.630610929940149,-4.421271428902092,-4.207798363587126
mp-1207598,YPd3S4,Cubic,Pm-3n,True,0.0013376956249970817,-1.0332088357812523,8.0,-8.208337417982392,-8.168504379065766,-8.133263269304793,-8.095283506995372,-8.050574474732011,-7.9531868640529275,-7.642729384972579,-7.32650142588173,-7.003540068489646,-6.673226218392781,-6.335167574402558,-5.989118384175951,-5.634934442791444,-5.272508929867815,-4.900310549523686,-4.48932760556286,-4.062662909013394
mp-1215915,YScS2,Trigonal,R-3m,False,0.011651999999999774,-2.1467416551562515,4.0,-8.514330051326379,-8.483501889658454,-8.454994566901153,-8.425102371411633,-8.391783355113146,-8.33200948760234,-8.165530711283452,-7.995945417040466,-7.822719287770818,-7.645489400100276,-7.4640057090468215,-7.278094553342811,-7.087637191153492,-6.890075159689406,-6.686000535008409,-6.462028886849375,-6.232334826405969
mp-7792,YScS3,Orthorhombic,Pnma,False,0.0018075120000027312,-2.2747560466874988,5.0,-11.321926816520198,-11.289921314141747,-11.259706065977568,-11.227170775247597,-11.190034292547981,-11.114206091974857,-10.87958555157756,-10.641743624670617,-10.399990649834628,-10.153857167286164,-9.903019479169473,-9.647252476563372,-9.386403327344647,-9.117889851870856,-8.842289943835873,-8.546210371730325,-8.24382169783101
mp-1066131,YTlS2,Trigonal,R-3m,True,0.0,-1.726999907083334,4.0,-6.849377800145655,-6.82163486492767,-6.793093112715247,-6.756844261517816,-6.716948866238374,-6.650523996748218,-6.47743878496291,-6.30140355626402,-6.12198141801912,-5.938899616310357,-5.751995166320512,-5.561174211933002,-5.366395743603064,-5.167648844791952,-4.910953378260125,-4.597892007077018,-4.281293019173619
mp-1215700,YZrS2,Trigonal,R-3m,False,0.05839567049999328,-1.8967428962499993,4.0,-7.5406131649032755,-7.516476321123486,-7.494714210642048,-7.47160350249705,-7.445087738584288,-7.392136815639337,-7.2324975667748355,-7.069765273583167,-6.901104743177972,-6.727581253459819,-6.550300410584181,-6.369132083365805,-6.183990695747006,-5.994821801106637,-5.800128031547541,-5.5933166860929315,-5.382345865598084
mp-1400406,Zn(CoS2)2,Cubic,Fd-3m,False,0.018742265102041245,-0.6093193224234698,7.0,-4.15003017050833,-4.096087899466073,-4.044764126107498,-3.988968061410945,-3.914596421131998,-3.7872847532981324,-3.4467628406478843,-3.1002909703012387,-2.728007829361162,-2.2658858056797913,-1.7956329908500503,-1.3175043728186182,-0.8325915781557267,-0.3410814934870494,0.1630084556572804,0.6865056965359457,1.216394575090943