,pretty_formula,crystal_system,spacegroup,experimentally_observed,"energy_above_hull, eV/atom",Ef,total_atoms,Gf_400,Gf_500,Gf_600,Gf_700,Gf_800,Gf_900,Gf_1000,Gf_1100,Gf_1200,Gf_1300,Gf_1400,Gf_1500,Gf_1600,Gf_1700,Gf_1800,Gf_1900,Gf_2000
mp-5081,SmCuS2,Monoclinic,P2_1/c,True,0.0,-1.6305704343749987,4.0,-6.392911731257032,-6.346209792153304,-6.300260572563402,-6.25128477427662,-6.197235267063551,-6.115102676270437,-5.924663891495379,-5.729542177955158,-5.528956548080303,-5.320773855145797,-5.0996261601964665,-4.86439457731835,-4.623958654566316,-4.3784380656488056,-4.127957456453185,-3.872646414441286,-3.6126338442202623
mp-1219053,SmEuS2,Tetragonal,P4/mmm,False,0.002565302499998978,-2.329592711250001,4.0,-9.102991134474308,-9.03381122906048,-8.965025438195978,-8.893004746097414,-8.815805665588705,-8.710500700028218,-8.496935143429253,-8.278583015011797,-8.052816407996147,-7.819312819798853,-7.577055246843305,-7.32658309206873,-7.0709563460858345,-6.810291573311456,-6.439904381958713,-6.072122110435181,-5.700295407660603
mp-1219007,SmGdS2,Trigonal,R-3m,False,0.0,-2.302449150000001,4.0,-9.027185090511713,-8.965198375430823,-8.903503168276469,-8.838325352990607,-8.767629200079694,-8.668417772056376,-8.460480395685149,-8.247461064793459,-8.028601593283572,-7.801797854485392,-7.565948893949116,-7.321525710198777,-7.06892259451358,-6.804669025234809,-6.535193218753014,-6.260638236126965,-5.981146455560745
mp-1219055,SmGdS3,Orthorhombic,Pnma,False,0.06639814275000333,-2.3781161664999972,5.0,-11.721147676875216,-11.656082421454343,-11.590778089263654,-11.521055979107892,-11.444641160166395,-11.327474199451302,-11.049493859372213,-10.766316696187117,-10.47702917948143,-10.179420646175878,-9.872316488946911,-9.556136258665031,-9.231240156320972,-8.894133943403045,-8.55123165393781,-8.202667547735796,-7.84857995408421
mp-1106349,SmPd3S4,Cubic,Pm-3n,True,0.0,-1.1559426206249999,8.0,-9.1568667195988,-9.106643712866626,-9.05926003125839,-9.00731979794639,-8.946814776206086,-8.83178943899248,-8.50185560561164,-8.164313700884852,-7.8179375531659545,-7.460340953992204,-7.090262036957638,-6.7080737987475825,-6.316721633860112,-5.91621583856427,-5.506589090653334,-5.06549394225987,-4.608149077345546
mp-1103612,SmSbS,Orthorhombic,Pnma,False,0.0,-1.6472728883333307,3.0,-4.838447633090854,-4.804365677326334,-4.771457164135466,-4.736339089000499,-4.697152737923004,-4.641880754473478,-4.5081958846192185,-4.3687520959026465,-4.223933228410511,-4.071818387741374,-3.911460077470224,-3.7434450024676993,-3.5708641343413614,-3.393851535777835,-3.2125429257368783,-3.049936722985043,-2.8183537859020387
mp-1188840,SmScS3,Orthorhombic,Pnma,False,0.0,-2.2972490019999987,5.0,-11.355325345781463,-11.301498558045544,-11.247709420492187,-11.189782341217727,-11.125418551499248,-11.020521306849684,-10.754993094609981,-10.484405904525186,-10.20780682182046,-9.922959272653198,-9.62866999395025,-9.325332625818781,-9.015883935555179,-8.697858860167255,-8.37339926702355,-8.03577617294345,-7.691276013137363
mp-999138,SmTlS2,Trigonal,R-3m,True,0.0,-1.713879643333327,4.0,-6.739679896562424,-6.695578025666485,-6.648924733744391,-6.59274644368198,-6.531086091063184,-6.4410545271761,-6.24252399322789,-6.039205851030659,-5.8303999545965315,-5.6140664359484775,-5.3891727450518845,-5.156243774818517,-4.918328115123211,-4.675531966077477,-4.375439164116436,-4.026296620638282,-3.6730484965076187
mp-1218978,SmTmS2,Trigonal,R-3m,False,0.0,-2.227661202500002,4.0,-8.702455195737718,-8.635266626899462,-8.568560269205852,-8.498632483875115,-8.423425776372508,-8.319868586212277,-8.10771396509026,-7.890589323945375,-7.667737513110411,-7.43706995237328,-7.197515743769639,-6.949569723725785,-6.696254571353229,-6.437652648861214,-6.173857509221108,-5.897029625524635,-5.6133102359022935
mp-1218975,SmYS2,Trigonal,R-3m,False,0.0003853874999997231,-2.24786778,4.0,-8.862953949573761,-8.81573790429751,-8.768887989946187,-8.718658074086147,-8.663010354362783,-8.578949966149802,-8.38626727264224,-8.188605231237005,-7.985209801558492,-7.773996549116747,-7.553893539516894,-7.32539353632416,-7.091517145788991,-6.852343620829031,-6.606497892350042,-6.347506448886563,-6.083433107208256
mp-5336,Sn(Mo3S4)2,Trigonal,R-3,True,0.05273189766666775,-0.7196691491666684,15.0,-10.96645066992049,-10.961887642136539,-10.952559086380294,-10.9381763986773,-10.912266136516385,-10.783358401203394,-10.230904656419462,-9.669626260838507,-9.09765633415633,-8.513730042651485,-7.917016729093983,-7.306943155127783,-6.683136329902258,-6.045338443308022,-5.393372516738648,-4.727128296511776,-4.046528984200993
mp-1078054,Sn2Rh3S2,Trigonal,R-3m,True,0.0,-0.6348219778571382,7.0,-4.414196277778258,-4.393711023094286,-4.352348385905366,-4.308484748252697,-4.259466273992604,-4.181089676100482,-3.9924494053979886,-3.7967989085635887,-3.5934456554125878,-3.3819853949413465,-3.162200530812017,-2.9340019560342396,-2.697385790104615,-2.4523990015268247,-2.1991397537695416,-1.9377236677162806,-1.6682877116189623
mp-17835,Sn2Sb2S5,Orthorhombic,Pnma,True,0.0174041355555552,-0.35172113628471874,9.0,-3.1572488924357685,-3.122648765200368,-3.0640952651106987,-3.0003588997826087,-2.9288619207534907,-2.792574904741974,-2.3474160222819673,-1.8947124659421828,-1.4353794498212835,-0.9688561355613068,-0.4948299608188673,-0.013132242983514786,0.4762950872128666,0.9734436853130273,1.4782525622358076,1.9448963844674605,2.548880317968525
mp-684021,Sn4Sb6S13,Monoclinic,C2/m,True,0.05940737402174179,-0.2917919500679293,23.0,-6.721053371682613,-6.639977108515007,-6.5131357038039095,-6.373901835891082,-6.214740397546805,-5.88737142605728,-4.739631588873614,-3.5717568996822213,-2.3868967276344897,-1.1836195465331514,0.038874220167514295,1.28101438350134,2.542947615324845,3.824656621477125,5.125979437548743,6.309485699587108,7.901735859207797
mp-29267,Sn5Sb2S9,Orthorhombic,Pbca,True,0.03917477031250094,-0.3753940293945277,16.0,-5.902575260833457,-5.816604804083855,-5.6670079242546665,-5.50655881058318,-5.332143306042532,-5.041457031155376,-4.230444358326665,-3.4080233885851943,-2.5743484014297433,-1.7283755387781703,-0.869511419686738,0.0025784413048413057,0.8880275076748774,1.78683954300282,2.698936236320442,3.578432600479264,4.600770419755783
mp-5045,SnGeS3,Monoclinic,P2_1/c,True,0.0,-0.6842915539999993,5.0,-3.4624628992793935,-3.4538679188208965,-3.4333553623439954,-3.4101185553933346,-3.382789443864855,-3.3173811449080084,-3.0938676595705363,-2.8678707262630843,-2.6387493958013195,-2.3777800756350596,-2.109842985615969,-1.8380990353749684,-1.5624814165231093,-1.2829700056961215,-0.9995695505029971,-0.712311704131471,-0.42123737139862705
mp-1218954,SnPb4S5,Tetragonal,I4/mmm,False,0.019778495249998862,-0.7447227877499983,10.0,-7.204810923403246,-7.110412692773162,-7.0066074595595556,-6.864469857439682,-6.712665550501628,-6.494633946076381,-6.010410106424214,-5.519544499090365,-5.0211770529332025,-4.514808813147219,-4.000140106464823,-3.476996923780744,-2.9453062795032885,-2.4050543558825126,-1.856272931392855,-1.2990304945624587,-0.7334145553934235
mp-1218951,SnPbS2,Orthorhombic,Pmc2_1,False,0.013826398124999528,-0.7220727449999989,4.0,-2.8233198016710954,-2.7933472010948286,-2.7512372334904396,-2.6983606239669067,-2.6418094867369657,-2.5588905584594976,-2.3695817962560533,-2.1776754035203307,-1.9828049648961592,-1.7847516208534184,-1.5833886616435517,-1.3786439961911725,-1.1704890521179188,-0.958923277190376,-0.7439624920899206,-0.5256409326693277,-0.3039973340793569
mp-1188095,SnPbS3,Orthorhombic,Pnma,True,0.0070812489999969586,-0.7316311474999985,5.0,-3.6015809312977836,-3.567334294947327,-3.5204197068723975,-3.461803307044754,-3.3983380083500228,-3.296268051946573,-3.0357208306010612,-2.772461110137723,-2.5059671308835476,-2.235913496899223,-1.9620998455624603,-1.6844026381443271,-1.402759211978009,-1.1171452979770997,-0.8275625344589965,-0.5340363560282331,-0.23660144891868917
mp-1218931,SnPtS,Cubic,P2_13,False,0.0,-0.6538234076041647,3.0,-1.9391691973565517,-1.9266948478848147,-1.9029443374214083,-1.877948145409818,-1.8508477133161998,-1.8098080964848957,-1.714539663311562,-1.616765666719767,-1.516197303380184,-1.4126579914788273,-1.3060552897806073,-1.1963405712392876,-1.0834996615848267,-0.967544324700933,-0.8484962721887008,-0.7263923225659443,-0.6012721506087004
mp-1191223,SnSb4S7,Monoclinic,P2_1/m,True,0.007458648541666335,-0.3101295235156248,12.0,-3.766566059244087,-3.7338646479710498,-3.6923989565184474,-3.645301733359302,-3.587714688805555,-3.4397914369899345,-2.833491552754311,-2.215851075206565,-1.5893060228270741,-0.9531112022148829,-0.30684865440985654,0.34970463061262436,1.0166234874670579,1.693902836055205,2.381452202465816,2.9876893745543676,3.8636921148428627
mp-14424,Sr(AlS2)2,Orthorhombic,Fddd,True,0.0,-1.7516711692857139,7.0,-12.20934708545355,-12.171370163758247,-12.13624804590821,-12.097836203958625,-12.052700369574282,-11.95433637994678,-11.627472722276488,-11.284102025498179,-10.930887306921587,-10.571044567395695,-10.204405959248252,-9.830907249821689,-9.45056425079274,-9.053152904080651,-8.575808218259537,-8.092954774154894,-7.604652844159164
mp-36577,Sr(AsS2)2,Triclinic,P1,False,0.03799723535714428,-0.7661003587499989,7.0,-5.4084879358528894,-5.395216674448175,-5.385173331880693,-5.372319096120019,-5.3533440704949395,-5.281905775360234,-4.998672999517555,-4.707531412270649,-4.407014269826488,-4.100219419953258,-3.7869396306184506,-3.3320679164050038,-2.860483021051621,-2.373529524089621,-1.8082481189145962,-1.2389680347429657,-0.6656738845382701
mp-8947,Sr(BS2)2,Monoclinic,P2_1/c,True,0.0,-1.2334539890476184,7.0,-8.606594312923233,-8.583107444576434,-8.565924620889533,-8.547956089271398,-8.525313624813265,-8.45132723582141,-8.166454279268704,-7.874451907072769,-7.573766315275782,-7.267420728647542,-6.955093907796881,-6.636593102680109,-6.311826336198504,-5.9704804172454455,-5.549619877118799,-5.123594673645648,-4.692411184830732
mp-1197827,Sr(BiS2)2,Hexagonal,P6_3/m,True,0.0,-1.1666713544047607,7.0,-8.084371774871293,-8.038185564504158,-7.969973606601243,-7.87895801051887,-7.781357303693197,-7.631183465721375,-7.269320862955969,-6.899806483558582,-6.521277226789508,-6.136907636276391,-5.746471824237131,-5.349849590765361,-4.9470111445943505,-4.527695116144147,-4.029003348211809,-3.525327255845755,-2.915668915863999
mp-33392,Sr(CeS2)2,Tetragonal,I-42d,False,0.02482632428571563,-2.388512975178575,7.0,-16.454916436630633,-16.361877037237534,-16.270486036549,-16.174663165313284,-16.071021830999708,-15.913151149547865,-15.54159968381754,-15.151130441558875,-14.742194075465344,-14.325603622194597,-13.901265857072781,-13.469189097579658,-13.029445122640753,-12.571859622840908,-12.033619428280907,-11.489182285563292,-10.93864785144079
mp-980666,Sr(DyS2)2,Orthorhombic,Pnma,True,0.0,-2.438532846964285,7.0,-16.785465384957323,-16.68745330580724,-16.591752940903003,-16.49256800295897,-16.386704675523642,-16.227870227617398,-15.856712719431231,-15.477016250076625,-15.087125445403498,-14.68990806560166,-14.284839730895431,-13.87149553080167,-13.449540963476881,-13.003924277416452,-12.46250028219985,-11.91346979330042,-11.357009163330353
mp-1193662,Sr(ErS2)2,Orthorhombic,Pnma,True,0.0,-2.436656995059522,7.0,-16.780897010306937,-16.68485042156747,-16.590852293718413,-16.493110485196244,-16.388447762438005,-16.2305941959358,-15.86024759454622,-15.481293627573004,-15.092240676890325,-14.696136841600786,-14.292648445146806,-13.881555790290845,-13.462719224129645,-13.025765442585651,-12.506542207510714,-11.958963139477417,-11.405176918402711
mp-14425,Sr(GaS2)2,Orthorhombic,Fddd,True,0.0,-1.4577934091071418,7.0,-10.089104971762001,-10.004809994141628,-9.923359456061183,-9.839035838955555,-9.748724095093774,-9.606220626522079,-9.252287500790114,-8.890893301644281,-8.520633471123547,-8.1446431684953,-7.762686141672095,-7.37463804502544,-6.980460795844333,-6.569886805965634,-6.080013772464259,-5.585226891805423,-5.085559489187727
mp-37183,Sr(GdS2)2,Tetragonal,I-42d,False,0.023524695357142633,-2.336525706607152,7.0,-16.095930859442014,-16.002374845657435,-15.911116036091238,-15.816148784490057,-15.714200505681871,-15.558959812937475,-15.191110005085976,-14.814559552902846,-14.427843785456133,-14.034021166153755,-13.632760091299215,-13.223863665126697,-12.802018373510982,-12.349830131942348,-11.81705352716768,-11.278142160067397,-10.733193614533148
mp-1194314,Sr(HoS2)2,Orthorhombic,Pnma,True,0.0,-2.438685768392856,7.0,-16.78348149372131,-16.685016240206938,-16.588850263772002,-16.489241171518607,-16.383075988576834,-16.224039182495346,-15.85270833618886,-15.472819872964333,-15.082716345810624,-14.685265514917539,-14.279940927648331,-13.86633011068626,-13.444092343604627,-13.002651181941367,-12.464853402939315,-11.91311239397419,-11.354596268035435
mp-21781,Sr(InS2)2,Orthorhombic,Fddd,True,0.0,-1.329530095297614,7.0,-9.169565704566098,-9.09727014300778,-9.022041957197091,-8.943020342047697,-8.85722291293689,-8.718560079269555,-8.367889260204402,-8.009235006736626,-7.641236290987591,-7.267073875168149,-6.886544672967911,-6.499549213091196,-6.106080505742991,-5.695887545648683,-5.206088758493861,-4.711090069354409,-4.210933094873186
mp-34141,Sr(LaS2)2,Tetragonal,I-42d,False,0.0,-2.4914909694642864,7.0,-17.294223374751628,-17.231315362294335,-17.170254743203998,-17.105224501584296,-17.033501360445843,-16.908628832784757,-16.571165845766167,-16.22490064422369,-15.863592685328191,-15.482908609924483,-15.095022385130193,-14.699894652620559,-14.297570244127227,-13.87784375731906,-13.37787507510296,-12.872101215470813,-12.360599033703615
mp-1192751,Sr(LuS2)2,Orthorhombic,Pnma,True,0.0,-2.434263863869045,7.0,-16.942012685902665,-16.891618672175507,-16.844040077933347,-16.79339562858682,-16.736423103269235,-16.626773803752176,-16.305064697310634,-15.975110975972097,-15.635354690056607,-15.28877553425156,-14.934975573306335,-14.573668778429244,-14.20465745660718,-13.817506117930598,-13.349148703450176,-12.873806653606874,-12.377558792899702
mp-8736,Sr(Mo3S4)2,Triclinic,P-1,True,0.0,-1.0331986675000016,15.0,-15.601545054813498,-15.580342259398636,-15.568279724476014,-15.55173516726099,-15.523316867789935,-15.390702981470382,-14.83413473204979,-14.264752610709717,-13.680081352422956,-13.082503322514539,-12.471259377461283,-11.845838464739128,-11.205923560746246,-10.541020030996403,-9.78804163637637,-9.02122232178386,-8.24045937802915
mp-37108,Sr(NdS2)2,Tetragonal,I-42d,False,0.0009920742857190135,-2.388871474464285,7.0,-16.44591184821853,-16.349646723743778,-16.254795764673077,-16.155206151617357,-16.047402159020073,-15.884846458295765,-15.507988114973035,-15.120484783638318,-14.716721925504537,-14.301283629724557,-13.866384284206788,-13.422102165491992,-12.968618914142208,-12.495855572351346,-11.941086030384978,-11.37884058498297,-10.809289370174316
mp-38240,Sr(PrS2)2,Tetragonal,I-42d,False,0.0,-2.38549207922619,7.0,-16.403218003325307,-16.302458167295157,-16.20331978277571,-16.09963552035042,-15.98794001876809,-15.821706313748583,-15.441420782319698,-15.048906597024025,-14.640966175078018,-14.15685531626314,-13.661324035787374,-13.157268146596103,-12.644817467724714,-12.113843292701509,-11.501567690265404,-10.882491937101339,-10.256740564294835
mp-17678,Sr(ScS2)2,Orthorhombic,Pnma,True,0.0,-2.282301814107143,7.0,-15.87885936406315,-15.829147477975663,-15.782286250011298,-15.732276252499913,-15.675797224464947,-15.56646315617879,-15.244884796333233,-14.914881482677895,-14.57490977556028,-14.227976316861662,-13.873712191386337,-13.511868681841825,-13.142285406714203,-12.749626632532763,-12.275102612728336,-11.779440462199055,-11.275033976682987
mp-34508,Sr(SmS2)2,Tetragonal,I-42d,False,0.01238997607143233,-2.361331452857141,7.0,-16.25897282655437,-16.161151971624342,-16.062272358846045,-15.956253718967735,-15.839784082457127,-15.666543771140734,-15.277224375291937,-14.875734365686213,-14.460090856124987,-14.029857466258079,-13.583021502064069,-13.120667095916223,-12.648912562471018,-12.157697599671941,-11.58429817064564,-11.003263227881584,-10.414764978269826
mp-1193989,Sr(TbS2)2,Orthorhombic,Pnma,True,0.0,-2.4364274405357156,7.0,-16.78634247368359,-16.691794681418976,-16.599359608737824,-16.50293625777772,-16.39911316167519,-16.24147736350874,-15.870631320525915,-15.490402661920587,-15.099245875179204,-14.700169675044098,-14.292803073458503,-13.876874551658203,-13.449746659154833,-12.991430089383407,-12.4473761695168,-11.89611374529213,-11.337794294988791
mp-1194307,Sr(TmS2)2,Orthorhombic,Pnma,True,0.0,-2.4419534116071446,7.0,-16.808658074988074,-16.711170726212284,-16.616361988091104,-16.518367168923703,-16.413870153455658,-16.256410308960966,-15.886598384131414,-15.508309683965422,-15.12008161039208,-14.725003719735328,-14.322804521269587,-13.91333479503356,-13.49653780256666,-13.062125227095061,-12.547182328527297,-12.010197531809691,-11.463266140686732
mp-29035,Sr(YS2)2,Orthorhombic,Pnma,True,0.0,-2.4390775433928575,7.0,-17.001929188298124,-16.957901212430833,-16.916319686778714,-16.871234932337195,-16.81937021821213,-16.714418303396425,-16.397064559580265,-16.071215384678062,-15.73541439920212,-15.39275945092063,-15.042976976246942,-14.68591360949765,-14.321508466490014,-13.939467011867013,-13.473937261405968,-12.986139670938844,-12.492014701488444
mp-14680,Sr2Ga2S5,Orthorhombic,Pbca,True,0.012408992916664197,-1.6531289633333328,9.0,-14.705762100024982,-14.60051028884694,-14.498961217163693,-14.393533109852847,-14.28009357265193,-14.100182908143694,-13.655311866019428,-13.197740944543028,-12.725255337602768,-12.244511909074188,-11.755276865334434,-11.257449928188244,-10.7510352141995,-10.215532180433629,-9.525139764875764,-8.828610180865535,-8.125973319705185
mp-4578,Sr2GeS4,Monoclinic,P2_1/m,True,0.0,-1.6842971299999985,7.0,-11.72701671503117,-11.686007569345538,-11.647844936060906,-11.606524205354445,-11.558741699138142,-11.457402489199639,-11.144019018794655,-10.818924073358971,-10.480058070834543,-10.105866322325834,-9.721303019855883,-9.329615326320843,-8.93083459985543,-8.504470937947122,-7.9247210686083,-7.340327860481189,-6.751302873723201
mp-1199935,Sr2Re6S11,Trigonal,R-3c,True,0.006993453881581679,-1.137290008815788,19.0,-21.610065765787354,-21.54174019861471,-21.481643104011745,-21.413652892691665,-21.328931844170715,-21.100777023391927,-20.290470988951398,-19.461428582908475,-18.61006604061797,-17.742148982193086,-16.856848039826115,-15.953654174700787,-15.032348753577192,-14.072268687989315,-12.94755607958615,-11.806924877890516,-10.65043496231219
mp-1104926,Sr2SiS4,Monoclinic,P2_1/m,True,0.0,-1.7919181737500014,7.0,-12.452354335816423,-12.40532349115668,-12.361480144543373,-12.314668367295823,-12.261511931188682,-12.154882742232545,-11.836282879377777,-11.506062747379238,-11.162180383497947,-10.811399490298175,-10.45353667364968,-10.088517336589558,-9.71634692648921,-9.31188196774184,-8.72776868828209,-8.139035907936329,-7.545693114000882
mp-30294,Sr2SnS4,Orthorhombic,Ama2,True,0.0,-1.6002927173214272,7.0,-11.118476075763162,-11.070729138507005,-11.011120727954584,-10.946987168106986,-10.875955495495054,-10.751046862126147,-10.413866990003976,-10.06484505260392,-9.702003345880058,-9.332153248201191,-8.95515696838054,-8.570973075232267,-8.179638109043768,-7.760666313024636,-7.188256488048327,-6.611156684909744,-6.029378463766282
mp-1218773,Sr2SnS5,Orthorhombic,P2_12_12,False,0.0,-1.4229667733203133,8.0,-11.256596428724233,-11.19158515957435,-11.114181832431854,-11.031318186160616,-10.940382055964356,-10.783332098349932,-10.361923470966161,-9.928557909718952,-9.481102366245556,-9.026261682505575,-8.563824414438491,-8.09369768320493,-7.6158839388038295,-7.109873707591806,-6.449851608078308,-5.784556889810016,-5.113997064027448