,pretty_formula,crystal_system,spacegroup,experimentally_observed,"energy_above_hull, eV/atom",Ef,total_atoms,Gf_400,Gf_500,Gf_600,Gf_700,Gf_800,Gf_900,Gf_1000,Gf_1100,Gf_1200,Gf_1300,Gf_1400,Gf_1500,Gf_1600,Gf_1700,Gf_1800,Gf_1900,Gf_2000
mp-541149,Cu4Bi7S12,Monoclinic,C2/m,True,0.029256991086956674,-0.5398052760869562,23.0,-12.140308420963635,-11.998186168595963,-11.783080036020756,-11.49230942905037,-11.182720232319102,-10.717871629094404,-9.61738553842088,-8.503643385188777,-7.374009183312893,-6.2267047205826165,-5.04352616072272,-3.817398618335485,-2.5714531331257717,-1.3057355010941407,-0.020404059143181996,1.2842969198767662,2.9616817871511785
mp-565590,Cu4GeS4,Monoclinic,P2_1/c,True,0.021437537430554876,-0.4619596095833324,9.0,-4.109496244851135,-4.0752481255233,-4.048974912348298,-4.021715341163976,-3.9886011520292595,-3.903139274463734,-3.6045665295687535,-3.299891822096269,-2.9878973921075307,-2.6393687245072606,-2.2618136435406555,-1.8518355037014818,-1.4327472260310028,-1.0046582069634518,-0.5677118318073866,-0.1220714140734458,0.33208028143247326
mp-675137,Cu4Sn7S16,Trigonal,R3m,False,0.014168845185185575,-0.4309532224074078,27.0,-11.325429471102108,-11.143539938132768,-10.873448886382974,-10.585925008208475,-10.275001135850104,-9.759500384653158,-8.399403000789505,-7.024886343693002,-5.6326712849698986,-4.220517191704154,-2.7699836562354676,-1.2738480426617897,0.24485869539716276,1.7861420992703714,3.3498787964700085,4.9358161890562755,6.543660944522657
mp-504536,Cu4SnS4,Orthorhombic,Pnma,True,0.02762873395833232,-0.3161985100000003,9.0,-2.7851818869529894,-2.7462072982720893,-2.700499630046762,-2.652438551938766,-2.5980865186258812,-2.4910665398474148,-2.1707087154527134,-1.8441183382333195,-1.5101595262626102,-1.167983831709643,-0.8000070956098,-0.39954407837485917,0.010087116801249962,0.4287729477621589,0.8563679563382394,1.292703646866201,1.7375972545401304
mp-510418,Cu5Si2S7,Monoclinic,Cc,True,0.0,-0.5323165346205363,14.0,-7.293593960073992,-7.216039746463002,-7.1497182788541895,-7.081215974229366,-7.0032310679552205,-6.83511259566281,-6.295971882170035,-5.74840329557083,-5.190512888103976,-4.620917457031521,-4.01740174023692,-3.371449958314779,-2.7120946155845083,-2.0301354582466153,-1.282639311243308,-0.5223844443770744,0.25039303556269843
mp-28717,Cu6As4S9,Triclinic,P1,True,0.0,-0.2585705934375001,19.0,-4.81760207721212,-4.742183060463191,-4.681770771971344,-4.617988349609463,-4.540851780724019,-4.346322793159008,-3.673074213427835,-2.9871834736297345,-2.2861695712068855,-1.568260167004233,-0.8068737037545581,0.27814543454659457,1.402075216787125,2.541560490255687,3.696498641306608,4.866733527330034,6.052042549322511
mp-675590,Cu6BiS6,Triclinic,P1,False,0.04425495420940173,-0.39742172884615345,13.0,-5.17102463052659,-5.137545231056796,-5.10209542128952,-5.054583755294875,-4.997870455691931,-4.862630306967704,-4.407987917888702,-3.9446645914495186,-3.4709828736072352,-2.9856847537826816,-2.4623834032688947,-1.8910360066118859,-1.3066043752926113,-0.7092388107332219,-0.09914204900605483,0.5234551947484292,1.2088097332646548
mp-5546,Cu8GeS6,Orthorhombic,Pmn2_1,True,0.045098764625000065,-0.36676682566666635,15.0,-5.349922955299542,-5.27940649873978,-5.223709941994427,-5.167186853447426,-5.101369698241639,-4.95585506470163,-4.489101516057673,-4.011377905412878,-3.5206877986463923,-2.9872002636795223,-2.400981673908783,-1.7520397102920242,-1.0870532553268042,-0.406265094851296,0.29003224670935523,1.0015209772273082,1.7278539950408494
mp-13872,Cu8SiS6,Orthorhombic,Pmn2_1,True,0.032167812020833964,-0.32212339949999963,15.0,-4.504940823159309,-4.39157240408157,-4.293364870463678,-4.194520471831721,-4.086499123191235,-3.898864247089721,-3.390064042452118,-2.870384981700605,-2.3378482500333906,-1.7909413068315878,-1.1945929393384382,-0.5354890686527369,0.13971733349128712,0.8354370543497254,1.5729280695751662,2.3255866358556325,3.093067724390501
mp-644883,CuAg3S2,Tetragonal,I4_1/a,True,0.03879309902777983,-0.11266835496527487,6.0,-0.5787731795409792,-0.5433387101080456,-0.5144849445507125,-0.4855484804562713,-0.45291449645066173,-0.3926384491312618,-0.22389855054459984,-0.049929874709037314,0.13004314326593036,0.33543880666729464,0.561868230022025,0.8012854327229046,1.0477675791881236,1.3011719521389544,1.5613431938756097,1.8281206071976666,2.1013336366661335
mp-8911,CuAgS,Orthorhombic,Cmcm,True,0.023641538888888647,-0.16122812149305807,3.0,-0.4544008069862855,-0.44163675029688665,-0.43220709384295064,-0.4227765089112574,-0.41154017589110925,-0.38653152344912867,-0.3073469126223123,-0.22560802614197373,-0.14092656334759424,-0.04672702031293863,0.05843454961242722,0.1729754318154173,0.2910270208593806,0.4125195127507504,0.5373762650701659,0.6655179656479531,0.7968603731951456
mp-5305,CuAsS,Orthorhombic,Pnma,True,0.0,-0.23169920677083175,3.0,-0.6819546263936225,-0.6734407699333756,-0.6683535560260504,-0.6633390002088284,-0.6565902100099448,-0.6361489055402889,-0.561631140016988,-0.48467621549042184,-0.4049165599107356,-0.3220926770212822,-0.2318130117350803,-0.06491456689654829,0.11030880460987325,0.2880112714288505,0.46817164017455326,0.6507613837734345,0.8357413456647258
mp-12954,CuBS2,Tetragonal,I-42d,True,0.0,-0.5917289910416663,4.0,-2.298085155388465,-2.2733395423131038,-2.25302805000565,-2.232866638585706,-2.2105200501356257,-2.1628037532415316,-2.0093775208512685,-1.8537889587526903,-1.695471620496709,-1.5340221619182866,-1.3649183713773816,-1.1864029217515535,-1.0042502152180717,-0.8184534809603203,-0.6290316489512779,-0.4360148093215823,-0.2394489522357297
mp-1225738,CuBi5S8,Monoclinic,C2,False,0.006675434642856359,-0.6204956342857137,14.0,-8.488217279096448,-8.38872256929215,-8.23372898917662,-8.024281161670409,-7.80256895296365,-7.478284975409166,-6.7315738750665055,-5.977613323133717,-5.214826519592755,-4.442191457746487,-3.6547769092660225,-2.8505732874183884,-2.03524210621363,-1.208745675981394,-0.37112278621796335,0.4775269479873465,1.5896486656346553
mp-22982,CuBiS2,Orthorhombic,Pnma,True,0.0,-0.5385046474999982,4.0,-2.113016347015032,-2.090721216321804,-2.0586953102986447,-2.015810520038883,-1.9697849637973346,-1.897775095805558,-1.7196541937012482,-1.5391097813942451,-1.35567076404452,-1.1690094569159633,-0.9746513241730597,-0.7708753137620334,-0.5634869207761515,-0.3525052851621293,-0.13796799264254211,0.08007413804130437,0.3520772673182737
mp-1225702,CuNi3S8,Trigonal,R-3,False,0.009049472500000988,-0.5419647799999989,12.0,-6.326569906895614,-6.231090795922933,-6.136157660250813,-6.031547804500903,-5.914406359205898,-5.695181802985236,-5.054169721459673,-4.406546279145173,-3.7506691403738053,-3.08541325995418,-2.4057552998517,-1.7096009747139629,-1.0025100045204631,-0.28433355943524674,0.4677331553250603,1.2404175094162007,2.024634027551201
mp-4468,CuSbS2,Orthorhombic,Pnma,True,0.0,-0.30408631140625,4.0,-1.1945095557932333,-1.177220345401052,-1.1627131855067878,-1.147232615801999,-1.128689012405415,-1.0839942319427518,-0.9109538731378821,-0.7341737373531001,-0.5541186265198954,-0.3704795116517574,-0.17880880410703526,0.022588637404716394,0.22788658917956717,0.43705140124333397,0.6500257956933098,0.8438813044126388,1.1063519030346178
mp-530588,Dy(CrS2)3,Orthorhombic,Pmn2_1,False,0.010041508625002749,-1.3273690925416646,10.0,-13.200342365907643,-13.14541002130077,-13.094649986956927,-13.039666512555863,-12.975777073348024,-12.834687646597537,-12.376060179572717,-11.91084794854554,-11.437450870973642,-10.954682320392713,-10.461640975610607,-9.95760300112417,-9.441982896443015,-8.912042586160574,-8.362876811906181,-7.801162343287935,-7.226758157375357
mp-1225724,Dy(CuS)3,Trigonal,R-3,False,0.0,-1.0076646247767858,7.0,-6.895832316301586,-6.838457632329716,-6.786943400749513,-6.7343097306063715,-6.676768930753255,-6.579369929535819,-6.32147872257543,-6.058286363432455,-5.788786283470625,-5.512189197743195,-5.215150598993532,-4.892499243111512,-4.561571250630164,-4.220057265235843,-3.863445925600617,-3.498769989986876,-3.126242604290729
mp-1103518,Dy(Mo3S4)2,Trigonal,R-3,True,0.0,-1.0451889971666675,15.0,-15.787458568843565,-15.76756312957958,-15.756941650346612,-15.742072382121762,-15.715612317176458,-15.586008642373892,-15.032628870522007,-14.470081389366596,-13.896356291189871,-13.310040532704132,-12.71014591923834,-12.0959385657038,-11.466887943808825,-10.82033483389851,-10.151475631466042,-9.467098564458304,-8.76719627529463
mp-16267,Dy2CdS4,Cubic,Fd-3m,True,0.0,-1.9407555619047596,7.0,-13.355254495511815,-13.271063455317602,-13.188646221922482,-13.092629889913638,-12.990102033729357,-12.835637414746335,-12.46911402526937,-12.038160085257735,-11.562900808217474,-11.081929714819296,-10.594597017193,-10.100373125371583,-9.598831295194092,-9.085119288033567,-8.549977336074019,-8.00722992686218,-7.457061704454499
mp-1198001,Dy2HfS5,Orthorhombic,Pnma,True,0.0036867159374978087,-2.160668527382814,8.0,-17.08258394594003,-16.99899304180233,-16.91741439122304,-16.83162328387703,-16.73818048340249,-16.580480102594837,-16.158465618530762,-15.731420665856914,-15.29810352646913,-14.857598168616082,-14.409206025886624,-13.952368862131951,-13.486643462221714,-13.007175635717163,-12.504702833174193,-11.993058360210355,-11.472435249131635
mp-1232131,Dy2MgS4,Cubic,Fd-3m,False,0.003020465000009409,-2.1605106519047577,7.0,-14.82354435682538,-14.722245626985861,-14.623596487746028,-14.521743648140902,-14.413446652344996,-14.253111323558098,-13.873080804108309,-13.485710473617047,-13.092188923317446,-12.691786463018428,-12.252697166589957,-11.740895045661148,-11.22177498637626,-10.690485786538868,-10.137764569041385,-9.577439967152685,-9.009692479207072
mp-675209,Dy2PbS4,Tetragonal,I-42d,False,0.067587929285712,-1.8451048811904742,7.0,-12.658940061343912,-12.567826943418279,-12.479077361265153,-12.37866058701227,-12.271591334031427,-12.112543861030517,-11.74143658110512,-11.365681100233083,-10.984267740486533,-10.596449192355326,-10.201640963092853,-9.799360102106114,-9.38921510387228,-8.966382749819324,-8.521621927880853,-8.068777854214268,-7.60804657361188
mp-1189757,Dy2SnS5,Orthorhombic,Pbam,True,0.022871413124999407,-1.7206453557291645,8.0,-13.490427705015033,-13.38810251790685,-13.273652671883632,-13.154210973332695,-13.027262681927887,-12.836304517087406,-12.381344214581008,-11.921719303443076,-11.456227449929706,-10.983982678775032,-10.504315443622843,-10.016687200504464,-9.52067339003914,-9.011435368246126,-8.479723022847713,-7.939384169488923,-7.390617022628398
mp-1225289,Dy2TeS2,Orthorhombic,Immm,False,0.0,-2.1577079711250007,5.0,-10.587843129286224,-10.524070391820628,-10.464148332469394,-10.403070142041198,-10.318216794778357,-10.199128380934948,-9.971591203989142,-9.739253120401028,-9.501459707389333,-9.257689165428701,-8.949416521853824,-8.649979397701543,-8.344196718116617,-8.027268860330725,-7.689963903040592,-7.346128082011555,-6.995949993411685
mp-1193407,Dy2ZnS4,Orthorhombic,Pnma,True,0.013373889642856795,-1.979199177976188,7.0,-13.58852421672418,-13.495663183719202,-13.405399919787246,-13.311062353842072,-13.199942237137018,-13.036667707221246,-12.661140594301804,-12.28076006719014,-11.875782966070002,-11.382374454872718,-10.882605375877848,-10.375945102687858,-9.86196585471126,-9.335817466182162,-8.788238096423509,-8.233054305843098,-7.670448665636311
mp-1199023,Dy2ZrS5,Orthorhombic,Pnma,True,0.0,-2.178184352291667,8.0,-17.156234110008832,-17.056293050794004,-16.958590186993835,-16.856905990435855,-16.747778423286533,-16.574572578286343,-16.13719047529065,-15.694871182433184,-15.24402443002144,-14.785113675343844,-14.3187452180306,-13.844351494058103,-13.361470632546407,-12.865224605154495,-12.346324951674937,-11.818572848378754,-11.282128161794859
mp-1212952,Dy3CrS6,Orthorhombic,Pnnm,False,0.0,-2.0266310064999984,10.0,-19.81951126790157,-19.668644461529098,-19.521106310965603,-19.368855525133192,-19.20742930255536,-18.968680793631965,-18.412363151518228,-17.84945038109681,-17.278282286854413,-16.69759140074512,-16.106374831384542,-15.50379266304981,-14.88914746075292,-14.25510147038079,-13.587691030702203,-12.907586796385111,-12.214981475130735
mp-1189242,Dy3GaS6,Orthorhombic,Cmc2_1,True,0.0,-2.0012227226874986,10.0,-19.587337520383304,-19.42641862976766,-19.26867293038101,-19.1062757451269,-18.934913518525615,-18.686557554057813,-18.1210636115015,-17.54950830236212,-16.97032678273544,-16.38234486332354,-15.784652931490015,-15.176503313829446,-14.55729081767132,-13.919769931219982,-13.250069235561682,-12.568948518390236,-11.876695839015913
mp-1199841,Dy3InS6,Orthorhombic,P2_12_12,True,0.007353977437499992,-1.9789414058750006,10.0,-19.364411367601576,-19.212175947668925,-19.06022518706911,-18.903162765445085,-18.73674145887125,-18.49298957450759,-17.931810547936642,-17.364308974288257,-16.78894177469939,-16.204557561343858,-15.61026330447378,-15.005323767850143,-14.389149305260428,-13.754502696353253,-13.087522886520194,-12.408980027760403,-11.719166325106283
mp-1095468,Dy3Sc2S7,Monoclinic,C2/m,True,0.0,-2.3052039058072893,12.0,-27.179847053809986,-27.013364732177195,-26.85132018249729,-26.68388248013349,-26.50560360642433,-26.23682995158169,-25.597197931407212,-24.94948696480872,-24.291773843443778,-23.622615856162557,-22.940888198381266,-22.245670342326378,-21.536211700675754,-20.800193158056814,-20.027861171176056,-19.226330936579764,-18.408271388123556
mp-10771,Dy4(SiS4)3,Monoclinic,P2_1/c,True,0.002084365263154808,-1.6049676420394718,19.0,-30.059880094148404,-29.878329370427494,-29.704098169698597,-29.522040183806723,-29.323777867424866,-28.973390272333383,-27.99069029863225,-26.997962042669027,-25.992250853132212,-24.97140972122896,-23.933820037300517,-22.878215650026036,-21.803606303633654,-20.68632170646511,-19.443200234201655,-18.180793842273772,-16.89951116896563
mp-1205150,Dy4Bi2S9,Orthorhombic,Pnma,True,0.04561071666666727,-1.7514966186111092,15.0,-25.851255325260578,-25.68661890868636,-25.502005273203437,-25.29063672326871,-25.065396193009867,-24.72447849845525,-23.907818079914474,-23.082144380219624,-22.245214294782937,-21.3953727737872,-20.531337794505205,-19.652067133764596,-18.756735398786994,-17.8356765812975,-16.870398420521475,-15.888592911830811,-14.789625138956964
mp-1225330,Dy4CdS7,Monoclinic,Cm,False,0.04611868666667629,-2.071131301180553,12.0,-24.352566213079363,-24.180404902927716,-24.011470813866136,-23.826459009753442,-23.63028059510795,-23.3434736997902,-22.685815694154332,-21.960426982753628,-21.18658765309474,-20.40223728143003,-19.60619924164902,-18.79749496586836,-17.975321008808688,-17.130006335109872,-16.243044745625184,-15.342094526500283,-14.427520108300165
mp-1225424,Dy4CrS7,Monoclinic,Cm,False,0.05778655527778476,-2.0532621361805528,12.0,-24.081879651816493,-23.896469348963528,-23.715379701413198,-23.528805695292043,-23.331315894827128,-23.04327638241048,-22.384315282399463,-21.717166410758438,-21.039824681132853,-20.350748921472213,-19.648709647708856,-18.9326681789885,-18.201755774908186,-17.44623714141472,-16.64753249279351,-15.833233783636096,-15.003625639356407
mp-1201054,Dy4In5S13,Orthorhombic,Pbam,True,0.04382971227272492,-1.437400313025563,22.0,-30.895010416110622,-30.59757003744837,-30.29382446919813,-29.9786205711492,-29.642812408897132,-29.13927423933082,-27.94800194326907,-26.743325199878836,-25.522254479999958,-24.282682807007028,-23.023079468919,-21.742263386907574,-20.43937523120549,-19.10474414051488,-17.719927305294718,-16.312693993870674,-14.883518430066303
mp-1225333,Dy4MgS7,Monoclinic,Cm,False,0.017414966666678744,-2.22978742826389,12.0,-26.058351573366302,-25.83705947456268,-25.619870380649704,-25.396998969934067,-25.16302831667027,-24.83832761254197,-24.135139377926613,-23.421311177039605,-22.69718647511471,-21.96138163754249,-21.18156389995264,-20.3232582960579,-19.451483010884168,-18.55656804550182,-17.620004091472516,-16.669453580664083,-15.70527679791936
mp-1225337,Dy4MnS7,Monoclinic,Cm,False,0.015621246249999388,-2.1569884132641852,12.0,-25.307780159490996,-25.116418030836094,-24.928513210849644,-24.734288669282577,-24.528350281861137,-24.23111180678191,-23.561782650466807,-22.88177517995032,-22.191112603431446,-21.48840506771754,-20.771906946335392,-20.038874630203527,-19.283809643726986,-18.50240551598572,-17.67781433668617,-16.837781452138813,-15.98274591590702
mp-1095296,Dy4Te3S4,Monoclinic,C2/m,True,0.0,-1.9734439992045467,11.0,-21.246798062316827,-21.104584312775952,-20.971938598590857,-20.83736793777868,-20.634952521659255,-20.35628675701045,-19.858979611862537,-19.35045503343231,-18.82943953505853,-18.294915126174267,-17.57176007415012,-16.88038477235944,-16.175588607066448,-15.447767789846374,-14.678458805756136,-13.89535776224459,-13.098846612390528
mp-35512,Dy5AgS8,Tetragonal,I-4,False,0.03380433946428418,-2.1022132771428543,14.0,-28.77688480774636,-28.55995218455342,-28.34827624890799,-28.130362887139427,-27.89986592356609,-27.56570479336299,-26.807418867158244,-26.039545302080384,-25.259777651015938,-24.460059653238666,-23.641990629209644,-22.807679767135017,-21.95621242929137,-21.075578080488345,-20.142700000039287,-19.19220337695692,-18.224580834587613
mp-1200233,DyAgS2,Monoclinic,P2_1,True,0.0,-1.5703183382291668,4.0,-6.166642551270884,-6.1250305540118966,-6.085768415718463,-6.045226084176665,-6.001410323544825,-5.931313832030247,-5.754677224162374,-5.575053287881725,-5.391825828073614,-5.19824647284849,-4.99696821914795,-4.790998211010881,-4.580175212950662,-4.362126283243286,-4.132267563863591,-3.8975566466264233,-3.6581265818610635
mp-1102052,DyAsS,Orthorhombic,Pnma,False,0.0,-1.7245241452083337,3.0,-5.038483670553216,-4.998345370579241,-4.961179756584626,-4.923742705743077,-4.884278110678958,-4.830849456544358,-4.723067614403737,-4.612530429086145,-4.4987977784044,-4.381543834547728,-4.260547638894917,-4.068122071369727,-3.8665652342217838,-3.6593039299418315,-3.441713033835171,-3.220708153868748,-2.996381304560531
mp-555044,DyCuS2,Orthorhombic,Pnma,True,0.0,-1.5930872557812492,4.0,-6.235502693141517,-6.188575711036018,-6.144086684491398,-6.098398306280007,-6.049522522712833,-5.974463432733047,-5.792976160897556,-5.608621786591144,-5.420783078268593,-5.228978959474876,-5.028585648377689,-4.8177297376348704,-4.602064367051297,-4.379213485611365,-4.144591162428845,-3.9051529164575136,-3.66102972516559
mp-1184176,DyScS3,Orthorhombic,Pnma,False,0.0,-2.2757214336874996,5.0,-11.219202331198934,-11.159898288141363,-11.10231713131341,-11.042425259794461,-10.977982981401999,-10.874907025245886,-10.613078113625864,-10.348006050455002,-10.078901676982703,-9.805180489636347,-9.526393382465665,-9.242179474149614,-8.952249123734592,-8.651641543504368,-8.337788024053884,-8.010785513694472,-7.676922520497602
mp-31166,DyTlS2,Trigonal,R-3m,True,0.0,-1.731646625000001,4.0,-6.786575098727621,-6.738074084639664,-6.688706885572607,-6.631641915395342,-6.570981186232193,-6.483849022968194,-6.290095901769304,-6.093370998615637,-5.893137923543566,-5.689008878846056,-5.4806954716113605,-5.2679680733230425,-5.050648865605955,-4.826348323847552,-4.537939707709366,-4.200495860081535,-3.8589630146897242
mp-1225120,Er(CuS)3,Trigonal,R-3,False,0.0,-1.0012383752529754,7.0,-6.857173711759241,-6.801292734938391,-6.751140583831489,-6.699739440344995,-6.6433099047761335,-6.546912306206428,-6.289937514590045,-6.027627368583481,-5.759057177562585,-5.48352782603702,-5.187790158359195,-4.866775537041784,-4.537917507087943,-4.201245935897553,-3.8562459382788714,-3.4928066750439086,-3.122127455741156
mp-1104330,Er(Mo3S4)2,Trigonal,R-3,True,0.0,-1.0345645917222233,15.0,-15.638095272718552,-15.620612951459924,-15.612272963554588,-15.599555632840715,-15.575126243034,-15.4474433817335,-14.895899436079949,-14.335153578915278,-13.76327778053382,-13.178949167104275,-12.581274895564656,-11.969623687449058,-11.343562438935923,-10.702771154083866,-10.04644270452227,-9.364221720747647,-8.6670870088317