,pretty_formula,crystal_system,spacegroup,experimentally_observed,"energy_above_hull, eV/atom",Ef,total_atoms,Gf_400,Gf_500,Gf_600,Gf_700,Gf_800,Gf_900,Gf_1000,Gf_1100,Gf_1200,Gf_1300,Gf_1400,Gf_1500,Gf_1600,Gf_1700,Gf_1800,Gf_1900,Gf_2000
mp-29341,K4Au6S5,Hexagonal,P-62c,True,0.0,-0.7490174556041665,15.0,-10.614751377605483,-10.398515612042749,-10.195068342449266,-9.989263733156537,-9.773032238632188,-9.487234374236069,-8.930303828865657,-8.175686115208464,-7.278879746544776,-6.369796237808384,-5.410084591820084,-4.4160047567294995,-3.408707812785149,-2.3882515429750164,-1.354791144678579,-0.30849516402691535,0.7504058957532749
mp-556627,K4GeS4,Cubic,P-43n,True,0.0,-1.2734856412777782,9.0,-11.086820172643318,-10.937106169138364,-10.79135401276152,-10.642032713486515,-10.485128030131666,-10.274689981815975,-9.85026631880077,-9.234136713314818,-8.48260944573651,-7.697910121196511,-6.9046393762942735,-6.105776686164077,-5.301132873075346,-4.490597610189283,-3.6741401624848393,-2.8517497231430937,-2.023459810973133
mp-15148,K4Nb2S11,Orthorhombic,Pca2_1,True,0.006857118878675905,-1.2162526068529398,17.0,-20.38094092909857,-20.20658962522718,-20.034264658141197,-19.85213601541997,-19.653763848581526,-19.31535686434465,-18.397293474583833,-17.285560471690353,-16.035331170283378,-14.776368271171371,-13.507596905122007,-12.228303108757693,-10.938028609547096,-9.636466609029064,-8.323462030750058,-6.998921220738836,-5.662819913921425
mp-18664,K4Ta2S11,Triclinic,P-1,True,0.0,-1.2559662300686218,17.0,-21.059002347859618,-20.884986028902347,-20.71280119779022,-20.53067588221247,-20.33221583663058,-19.993660860679327,-19.07541631342707,-17.963489715875745,-16.713073038394135,-15.453941418957083,-14.185038644081871,-12.905677697584778,-11.615454201322194,-10.314100741193215,-9.001489187938187,-7.677540397613306,-6.342250833755315
mp-541735,K4Ti3S14,Monoclinic,C2/c,True,0.0,-1.3256928585238086,21.0,-27.383635338474566,-27.149147125608895,-26.91582839242431,-26.669311472068294,-26.401811049300495,-25.955961083330024,-24.77222987765053,-23.392112238794777,-21.866148081520397,-20.32117979092083,-18.763556702665134,-17.192323305908154,-15.606833663653333,-14.006622369549788,-12.391403512904915,-10.76096013815917,-9.101060459494668
mp-14794,K6CoS4,Hexagonal,P6_3mc,True,0.02780762075757437,-1.0904033529166695,11.0,-11.376513653110784,-11.149324656395997,-10.927385925435487,-10.700842038488936,-10.463908959276022,-10.170552447634673,-9.65986045796611,-8.861319434248275,-7.859646458302066,-6.850706992947105,-5.83357011241516,-4.808100529403831,-3.774682436105696,-2.7333073179727805,-1.6809612118058013,-0.6142089611265575,0.46041833863242587
mp-5114,K6HgS4,Hexagonal,P6_3mc,True,0.0,-1.1372634182727266,11.0,-11.792521335878646,-11.540044920930935,-11.292999110650289,-10.974460027059664,-10.617839363784942,-10.206329185270988,-9.579077558889942,-8.665664207367751,-7.550933693480892,-6.430940110406041,-5.305035477910547,-4.172811927461744,-3.0340131371827006,-1.8884782372370381,-0.7361543464589388,0.4229952359112765,1.5889450888982601
mp-18244,K6MnS4,Hexagonal,P6_3mc,True,0.0,-1.3137496821120684,11.0,-13.826584864559464,-13.597122831984251,-13.372459181450822,-13.142798604189785,-12.902982031532364,-12.606445607314003,-12.091898988791282,-11.287566247552661,-10.28028189299845,-9.266199515636506,-8.244104207732509,-7.211820986694605,-6.16440057319133,-5.107044588965316,-4.041360514564996,-2.967396636534417,-1.8852550717084071
mp-1120789,K6Sn2S7,Orthorhombic,P2_12_12_1,False,0.0,-1.224162457899999,15.0,-17.80120599950312,-17.567660784274878,-17.311207324589915,-17.046092954702516,-16.767523249565354,-16.395514033653697,-15.649581029341721,-14.615210999252163,-13.376810577098535,-12.130151256049594,-10.874424662131801,-9.609122333897446,-8.333944348848505,-7.048721511686168,-5.753408988697011,-4.44800535140466,-3.1325700919978274
mp-1147618,K6ZnS4,Hexagonal,P6_3mc,False,0.0,-1.2663517130681818,11.0,-13.258674296645262,-13.01830091082859,-12.78331978174925,-12.543108529072326,-12.283017489736121,-11.966660555412545,-11.433339185192647,-10.61275643703583,-9.57113532632779,-8.441530516281993,-7.306016729676614,-6.164182988687404,-5.015774007867943,-3.8606289173818666,-2.69869483606335,-1.5299350631527273,-0.35437501962532636
mp-1204678,K7(FeS2)5,Monoclinic,C2/c,True,0.0,-1.041108808215909,22.0,-22.25347148827177,-21.971951991253754,-21.69829841932879,-21.41214801421083,-21.101908865436958,-20.650964635503172,-19.655909640218166,-18.313827354675738,-16.710309894530944,-15.090840582168628,-13.454187715816552,-11.799574942769672,-10.126524857912223,-8.43476132451493,-6.72418376239881,-4.951473706044929,-3.158034539249869
mp-14889,K9Fe2S7,Cubic,P2_13,True,0.0,-1.158531823624999,18.0,-19.926215855716535,-19.578877012452132,-19.239127096381708,-18.890716378061622,-18.524776866396593,-18.05954903596188,-17.212931310014234,-15.93228243188147,-14.339813199766624,-12.736504336290444,-11.121330136365074,-9.49364489668595,-7.853050051396565,-6.199303699993337,-4.532328307760963,-2.834766923962519,-1.1232046978398031
mp-18577,KAg3S2,Cubic,Fd-3m,True,0.009250882175926733,-0.48976443596064456,6.0,-2.7480551397311404,-2.6808312151495253,-2.6191847296873316,-2.55680984946582,-2.4903052578007765,-2.3958621836894354,-2.192736571468318,-1.937981187024989,-1.6452019755482281,-1.3278406638075309,-0.9945593403644919,-0.6549980159864566,-0.30920400156227323,0.04273491644758565,0.4007069104257326,0.7645948132541438,1.1342653809930212
mp-28468,KAg5S3,Hexagonal,P-62c,True,0.0,-0.3993050578356474,9.0,-3.307423937912204,-3.210570422132525,-3.1225406491124055,-3.0337007112736187,-2.938839290168584,-2.802169642725295,-2.502529564289805,-2.1485852120367213,-1.753555266924844,-1.3180386563629074,-0.8565303010359789,-0.3851334777055252,0.09605027259444417,0.586860250118292,1.0871059119682087,1.5965887059954156,2.115089074110095
mp-7077,KAuS,Orthorhombic,Cmcm,True,0.0,-0.8775541588541671,3.0,-2.497715913614532,-2.4501052613886944,-2.404862019710803,-2.359023974859606,-2.3110174312333176,-2.249038537092282,-2.1327872965268186,-1.9677155213038429,-1.7678019108146574,-1.5656003594851025,-1.3546899812441087,-1.1377624713753338,-0.9183316651438957,-0.6963999985587064,-0.4719912560819246,-0.24513189192603413,-0.01586158086706746
mp-3592,KAuS5,Orthorhombic,Ibam,True,0.0,-0.4065271125446413,7.0,-2.748168714007959,-2.684421918844526,-2.620920195443647,-2.553082989535178,-2.4783798002089004,-2.340756793723101,-1.9405117167485377,-1.4909866307742625,-1.0055388579242317,-0.5162961469875205,-0.016543000398110408,0.4912346771745124,1.0036594116190436,1.520823634338523,2.0427602903267363,2.5694781303641463,3.1009536753422307
mp-15012,KBS2,Trigonal,R-3c,True,0.0,-1.1253750374374991,4.0,-4.45636222601722,-4.42907401050005,-4.405216650994604,-4.380863676154459,-4.3538933327518174,-4.301256861772651,-4.142691768454803,-3.935563350455327,-3.6936866714044227,-3.44951841719354,-3.2028095792711966,-2.9533968606750824,-2.701179138889509,-2.4460947122795993,-2.1881189807359314,-1.9272385043067561,-1.6634619616573616
mp-1223584,KBi3S5,Orthorhombic,Pnma,False,0.0,-0.836971433861113,9.0,-7.410487215794767,-7.3405280300900895,-7.236950756808648,-7.100071221491357,-6.955056921050534,-6.745468161178229,-6.271391636013054,-5.746077634978155,-5.1828837207237815,-4.613995077589802,-4.038982026582579,-3.457573278468857,-2.869626813107338,-2.275078424817945,-1.6739227711277067,-1.066191538869539,-0.3003967668297598
mp-1223443,KBiS2,Trigonal,R-3m,False,0.0,-1.049449788062498,4.0,-4.039653243615959,-3.9796063728072983,-3.9088254619125244,-3.8265399705589385,-3.7406815216912026,-3.628542341940732,-3.4100734412352134,-3.142780035353688,-2.840572539535417,-2.5359832991007742,-2.2288109813028107,-1.9189285642478735,-1.6062660183362762,-1.2907875526964698,-0.9724872229686365,-0.6513723178116848,-0.2769493652975523
mp-38077,KCe5S8,Tetragonal,I-4,False,0.03762360785714236,-2.295874751160714,14.0,-31.34862043887181,-31.088767490966625,-30.8315977735949,-30.565257531690968,-30.283137336217727,-29.894008412783947,-29.077253631007242,-28.178683402926204,-27.21563682218501,-26.239048144718037,-25.248591003055587,-24.244171134090124,-23.22582845261937,-22.193687988566705,-21.147957469605323,-20.088858809627467,-19.016653507970588
mp-7329,KCeS2,Trigonal,R-3m,True,0.0,-2.1450660823437495,4.0,-8.374499843222605,-8.30191506897854,-8.230433327768539,-8.15663288991586,-8.078642818381756,-7.973543907968853,-7.7611192668584525,-7.494237120623871,-7.187714761220953,-6.877903780485074,-6.564669177223411,-6.24794818823538,-5.9277215690174145,-5.603997058780368,-5.276811206816281,-4.946204467561131,-4.612232159054205
mp-1189266,KCr3S5,Monoclinic,C2/m,True,0.0,-1.1141055305277818,9.0,-9.905387355297261,-9.837446851532643,-9.773659934544787,-9.706283146048104,-9.631035882213869,-9.490800623165384,-9.085172794968512,-8.62699226055523,-8.129268341916614,-7.6238473106081734,-7.110004104934276,-6.587184490126109,-6.0549572819235955,-5.512972219819481,-4.960941015805217,-4.398618629761351,-3.825777918217881
mp-12178,KCr5S8,Monoclinic,C2/m,True,0.0,-1.086912289089285,14.0,-15.095001855038602,-15.009354781311577,-14.930158363106344,-14.845382652166606,-14.748350851470576,-14.547761636489714,-13.92301860545229,-13.242433077273617,-12.518229360916312,-11.781680625099124,-11.031636540078425,-10.267209973388752,-9.487704974149228,-8.692552163825944,-7.881275225940161,-7.053469033911532,-6.208752500146851
mp-4026,KCrS2,Trigonal,R-3m,True,0.0,-1.1809625930624996,4.0,-4.594116056433419,-4.5417872053506,-4.491314872299511,-4.439242088965287,-4.383684444712236,-4.301708224315529,-4.113100681678601,-3.875230223750105,-3.6018911855495777,-3.32550294146927,-3.0457656978615724,-2.762458117654311,-2.4754137832082055,-2.184501552042649,-1.8896211646192969,-1.5906876672796013,-1.2876278606767304
mp-9868,KCu3S2,Monoclinic,C2/m,True,0.0058589324999989145,-0.6251568928749999,6.0,-3.5286219633202025,-3.4541677509780593,-3.3855552675413128,-3.316456914090028,-3.243486920397989,-3.1428707176700277,-2.93390778032506,-2.673675748583447,-2.375777458342375,-2.072456522674905,-1.7505446938209257,-1.4050403284046489,-1.0534338631894133,-0.6958037567608901,-0.332255618153269,0.03709960409862312,0.4121348846381885
mp-27677,KCu4S3,Tetragonal,P4/mmm,True,0.0,-0.589960761843749,8.0,-4.4569452564866765,-4.366596983619089,-4.283536395724121,-4.199562309449743,-4.110269535177176,-3.980374671062235,-3.6890573448786235,-3.34519646514976,-2.9621225270688836,-2.571871771258607,-2.156878760809777,-1.7104672101358638,-1.2559520012200451,-0.7934330815724806,-0.3230462538245238,0.1550633144588236,0.6407295381654485
mp-1223529,KCu7S4,Triclinic,P1,False,0.01681927609374423,-0.452629962270833,12.0,-5.074991898686134,-4.956567082528945,-4.850828988938732,-4.744764851541651,-4.631389625195424,-4.46301839990986,-4.0781723922327995,-3.6371891907357625,-3.152892957133826,-2.656910887516638,-2.118633283275406,-1.5264628274984258,-0.9212559184053379,-0.303224403985741,0.3273769676095881,0.9702827692286071,1.6252016386589112
mp-28270,KCuS,Orthorhombic,Pnma,True,0.0,-0.9216645490833338,3.0,-2.6829655994090817,-2.6487884936674213,-2.617030620000369,-2.584706963214943,-2.5502313905429586,-2.5017845037867583,-2.3990549063007998,-2.24749026412986,-2.06108275026218,-1.8723841862625306,-1.6769470497951389,-1.4730675342521735,-1.2665530956688267,-1.0574154979288028,-0.8456857805079974,-0.6313976526326259,-0.4145959712313889
mp-15785,KDyS2,Trigonal,R-3m,False,0.0,-2.1710968410937497,4.0,-8.432087196405469,-8.347830931100292,-8.265009356599814,-8.180342734210353,-8.092056514932747,-7.977290570110023,-7.755877756589077,-7.4851968456239,-7.1790121157485585,-6.869702520564512,-6.556917481328018,-6.2403776208570445,-5.919860554263511,-5.5929352997135515,-5.25497239623854,-4.912883832709859,-4.566763275096527
mp-4326,KErS2,Trigonal,R-3m,False,0.0,-2.1653999281770826,4.0,-8.411402122312293,-8.327583923020429,-8.245068787855544,-8.160579050985021,-8.072348454853962,-7.9575282715412605,-7.735976232226612,-7.465121893260135,-7.158811411188025,-6.849513909068127,-6.536974159765766,-6.221015392721694,-5.90151264751796,-5.578374166034222,-5.2509669634380485,-4.909059431150435,-4.563731398792786
mp-1018137,KEuS2,Trigonal,R-3m,True,0.0,-1.798490463593751,4.0,-6.947171901227842,-6.864455650114341,-6.7832694414146,-6.70037395722573,-6.614047506505764,-6.501490073568659,-6.2826081018291715,-6.014672573765833,-5.709673398839802,-5.4018665063482345,-5.091081656460179,-4.777221883767451,-4.460240996572624,-4.140123932614817,-3.71207851133169,-3.2883273916469644,-2.862133125885048
mp-22035,KFe2S3,Orthorhombic,Cmcm,True,0.0,-0.9238636099583335,6.0,-5.429899977475391,-5.374623625964078,-5.321272332373033,-5.264106153894674,-5.199747611747048,-5.093171683696629,-4.823211450422372,-4.500164223596164,-4.13274606915094,-3.7602903032224226,-3.3824684977115806,-2.99907405510468,-2.6099806841762554,-2.215119152160982,-1.8144618867695375,-1.3906912206897193,-0.9603621214453035
mp-3827,KFeS2,Monoclinic,C2/c,True,0.004089190535716547,-0.9953896730625003,4.0,-3.8834453045612563,-3.838311730595124,-3.794362031244647,-3.747968227156974,-3.697038621589766,-3.6183741731016834,-3.431370364854593,-3.1939853327705654,-2.9176316945037435,-2.6383024369250005,-2.355771352954589,-2.0698948378103275,-1.7805842061429287,-1.487788120622846,-1.1914861268627943,-0.88301473568057,-0.5706523049662149
mp-17650,KGaS2,Monoclinic,C2/c,True,0.0,-1.292238078999997,4.0,-5.011303179673234,-4.936466266568019,-4.863330406914546,-4.788655246379397,-4.710705620323672,-4.606665966603331,-4.396426145744595,-4.137457171318914,-3.8436487299548787,-3.5475134747927335,-3.2488448909328627,-2.947513883620548,-2.643446277533969,-2.33660317250998,-2.0269765513276905,-1.7145705933544164,-1.3994074508523777
mp-15784,KGdS2,Trigonal,R-3m,True,0.0,-2.1295662498437515,4.0,-8.300993204263342,-8.224657632732303,-8.14974949699223,-8.072884378865584,-7.992248344992941,-7.884971938842526,-7.670905636580302,-7.407490395292254,-7.108585845121506,-6.806666291278577,-6.501477543059318,-6.19285423064035,-5.878084462992744,-5.553566091780066,-5.2256195446174125,-4.89428320307969,-4.5596113487756575
mp-15786,KHoS2,Trigonal,R-3m,True,0.0,-2.169231776093749,4.0,-8.421957462749186,-8.337189034502291,-8.253849078476897,-8.168684803173186,-8.079962080382789,-7.96480938071287,-7.743024322372195,-7.47196183871249,-7.165385171837289,-6.855673275348048,-6.542474534070497,-6.225515789405797,-5.904571547174273,-5.57944847906333,-5.243013107936025,-4.899283708614922,-4.551849827257676
mp-1223488,KIn5S8,Monoclinic,Cm,False,0.0002609108035693808,-0.9309095643273823,14.0,-12.505755883259852,-12.284718653016423,-12.054912095914105,-11.817531117300783,-11.566976807909256,-11.212823627011563,-10.435226584972579,-9.60314995194356,-8.72940362013841,-7.845841159374491,-6.951861548090793,-6.0471010512411425,-5.131402661821948,-4.2046996701079244,-3.267028792734301,-2.318482389776648,-1.3591768602977652
mp-1224365,KIn7S8,Monoclinic,Pm,False,0.0,-0.8533200700364579,16.0,-13.009271269718553,-12.746845560639292,-12.473451354582949,-12.192500763780027,-11.897147444853445,-11.496319852445149,-10.66983342700176,-9.786467387860625,-8.85894688045822,-7.919104141442176,-6.9663535630977265,-6.0003622146104005,-5.021026170772089,-4.028331821913265,-3.0223756165364932,-2.0033152266635454,-0.9713242486470458
mp-505412,KInS2,Monoclinic,C2/c,True,0.0,-1.1824234931666666,4.0,-4.568721340350906,-4.501765270095616,-4.4336217213959195,-4.363478696657788,-4.289667362796449,-4.189429161347186,-3.982701628640755,-3.7269837618730013,-3.436187012713715,-3.1428468357748702,-2.846773299045384,-2.5478497449369373,-2.2460175445857065,-1.9412460892728145,-1.633537726082701,-1.3229069986880138,-1.0093802050731089
mp-15781,KLaS2,Trigonal,R-3m,True,0.0,-2.19022247859375,4.0,-8.61335468327076,-8.555585293991511,-8.499018435077518,-8.440364003529762,-8.378082720080128,-8.289232578059517,-8.093601867801896,-7.84857143342232,-7.565612969115326,-7.27350486880988,-6.978245727208893,-6.679748943209516,-6.37798179871125,-6.072936486466952,-5.764636082171731,-5.453110675956225,-5.138404185123864
mp-8430,KLiS,Tetragonal,P4/nmm,True,0.0,-1.4257264944097219,3.0,-4.091479921143348,-4.027545479930061,-3.9615321622771082,-3.894412044767426,-3.824825972919614,-3.74107788376947,-3.6029517322805074,-3.415974989648568,-3.1942175611518797,-2.970323510672676,-2.7441755226430757,-2.515714605711503,-2.284917257733124,-1.9793259468461866,-1.6512886529836575,-1.3213863206933034,-0.9896254589740918
mp-1007636,KLuS2,Trigonal,R-3m,True,0.0,-2.157413131510415,4.0,-8.465688037598177,-8.404020952059469,-8.344040409945036,-8.282424178909338,-8.21736350774561,-8.125970284172487,-7.928061818578863,-7.681032428676728,-7.398695105235212,-7.113484769104569,-6.825114063803586,-6.533373052995954,-6.2381077562087945,-5.939195322405765,-5.636545856353852,-5.330081659408242,-5.012847633481364
mp-28383,KNaS,Orthorhombic,Pnma,True,0.0,-1.2855188080208322,3.0,-3.635256644329976,-3.5574698245095444,-3.4811362835067383,-3.403659667578541,-3.323690150118348,-3.2295575789252906,-3.0810448725323476,-2.8836608463857627,-2.627278898534662,-2.3076358015724767,-1.9863699532546404,-1.6633715771334465,-1.3385726045511337,-1.0119319414342094,-0.6834350243151057,-0.3530741051987105,-0.02085672951452544
mp-7938,KNbS2,Hexagonal,P6_3/mmc,True,0.008580634375000784,-1.4082770893124996,4.0,-5.468207254229449,-5.406912845123686,-5.34751537484045,-5.2866273159106,-5.222432662113643,-5.13206506620941,-4.935382259377594,-4.689827271565244,-4.409265951498688,-4.126193332999104,-3.840380099695146,-3.551678501082498,-3.2599957060897378,-2.965271049512526,-2.6674757855193043,-2.366594401297256,-2.062623138345277
mp-1006885,KNdS2,Trigonal,R-3m,True,0.0,-2.12665134171875,4.0,-8.288625043602574,-8.212812707964186,-8.137986288709602,-8.06068778109342,-7.979001681563963,-7.869945562661329,-7.6532527839012285,-7.3862388942751185,-7.080688589998576,-6.769838989154582,-6.449708896841445,-6.125270529389075,-5.796559573112173,-5.463631443026119,-5.12656621850535,-4.785440629054502,-4.440345231351001
mp-15782,KPrS2,Trigonal,R-3m,True,0.0,-2.111293942760417,4.0,-8.219894135895634,-8.142388876289461,-8.065973176120421,-7.987181775629377,-7.9041043534173125,-7.793763664176995,-7.575911723173735,-7.3069468383770655,-6.99986218400433,-6.655230733452802,-6.305339105470583,-5.951568284589895,-5.593928046362107,-5.2324489314698,-4.867185108524081,-4.49819879700212,-4.1255577521096125
mp-30533,KPt2S3,Trigonal,R-3m,True,0.0,-0.801813192864581,6.0,-4.659886685873522,-4.595423088986081,-4.533883669052959,-4.470065354282788,-4.401164848409033,-4.292822517600509,-4.024798011432898,-3.7063563567669675,-3.3511221545411,-2.9914328147916187,-2.6269702737248313,-2.257530006688066,-1.8829919410390552,-1.503290989734614,-1.11840787192968,-0.7283436745225522,-0.333126443753903
mp-28760,KRbS,Orthorhombic,Pnma,True,0.008087277500000045,-1.1761632682499992,3.0,-3.287310647905935,-3.2050957778688707,-3.124195304957978,-3.041962090334109,-2.9570224694883986,-2.85769592591464,-2.682093615695696,-2.4033410822666132,-2.090565493692584,-1.7763425094406458,-1.4604978102635888,-1.1429205832831757,-0.8235406869805786,-0.5023139179906995,-0.1792257128459802,0.1457347857403013,0.4725610687691679
mp-15559,KSb5S8,Monoclinic,Pc,True,0.0,-0.46007861901785574,14.0,-6.281880219174013,-6.184866384187187,-6.09391454327219,-5.997290130874683,-5.888357807194232,-5.675722968954294,-4.929269599935298,-4.122584450466759,-3.2731517144675237,-2.4129026940449343,-1.5413140999279804,-0.6580999293604783,0.23685018528716742,1.1435563143662293,2.061924737562183,2.877511122990338,4.0291869971721965