,pretty_formula,crystal_system,spacegroup,experimentally_observed,"energy_above_hull, eV/atom",Ef,total_atoms,Gf_400,Gf_500,Gf_600,Gf_700,Gf_800,Gf_900,Gf_1000,Gf_1100,Gf_1200,Gf_1300,Gf_1400,Gf_1500,Gf_1600,Gf_1700,Gf_1800,Gf_1900,Gf_2000
mp-1211414,LaTiS3,Orthorhombic,Pnma,False,0.023615841499999846,-2.075832747166667,5.0,-10.29576605856564,-10.255619270080778,-10.216739338390902,-10.175123755491398,-10.128837539776526,-10.043770473162287,-9.799765966449222,-9.552295475620664,-9.296963063670335,-9.028780433689866,-8.756250130244602,-8.479223740272827,-8.197617872497052,-7.911379237775947,-7.620485636524636,-7.324928301140062,-7.020008539610785
mp-1222701,LaTmS2,Trigonal,R-3m,False,0.0,-2.315916525156247,4.0,-9.110009487409224,-9.058393848575564,-9.00871349649416,-8.957396419060952,-8.90267946801265,-8.8214226784483,-8.633312770509614,-8.441917042164576,-8.244349515430702,-8.0365731206934,-7.824610290557847,-7.608394116101325,-7.387910534972936,-7.1631693592445975,-6.934206101777819,-6.693125268415528,-6.446020421483693
mp-1199053,LaTmS3,Monoclinic,P2_1/m,True,0.0,-2.4585341964374976,5.0,-12.157600217820857,-12.104257912393614,-12.05232030902228,-11.997810810465573,-11.93872706713309,-11.84086661862337,-11.584065620723225,-11.323863933831182,-11.057220235647913,-10.779990920149643,-10.498124767067802,-10.211503419826132,-9.920078725785288,-9.623836780164197,-9.32279891346038,-9.009060830268524,-8.688712043997729
mp-1211380,LaVS3,Orthorhombic,Pnma,False,0.050652810416665695,-1.8531406579999996,5.0,-9.189817642302001,-9.151750965163542,-9.11515843092672,-9.076010584393057,-9.032333059596542,-8.949992836981451,-8.708856128820056,-8.46446175908035,-8.213751822574476,-7.952566130390121,-7.6868275514953925,-7.416389745689629,-7.14117761313962,-6.861153411162029,-6.576312559491049,-6.286665982703747,-5.992234893437079
mp-1200447,LaYS3,Monoclinic,P2_1/m,True,0.0,-2.4628581604375,5.0,-12.264248215785173,-12.232217367452002,-12.201475140955019,-12.168002445401074,-12.129816623379899,-12.05279191034949,-11.81680177359586,-11.577401619975532,-11.331553236480778,-11.075117162809958,-10.814041142263967,-10.548204745405485,-10.277557746734093,-10.002083132177118,-9.72033361016648,-9.42577090073968,-9.126407095944987
mp-1097024,Li(CoS2)2,Cubic,Fd-3m,False,0.043388184285714004,-0.6609656832738082,7.0,-4.3900036434450085,-4.302212449383061,-4.212843245775696,-4.119628791302963,-4.018205139441336,-3.864157571337432,-3.497188922535921,-3.124533569393453,-2.745033624415912,-2.3577272369727673,-1.961657835755977,-1.5571322302388744,-1.1452866135046271,-0.653891434390653,-0.12932666182760855,0.4146464389003057,0.9650142865961494
mp-1238817,Li(CrS2)2,Monoclinic,P2/m,False,0.0,-1.0926063211904744,7.0,-7.505859011189977,-7.442979918778926,-7.3793457426658495,-7.312753500223861,-7.240014557154138,-7.115559610989258,-6.779172338855483,-6.438205270190258,-6.091678783551178,-5.738904645968495,-5.3793906070130575,-5.012773942033725,-4.638783371449518,-4.184751970412826,-3.7028388445076708,-3.2134653616248787,-2.716478289467064
mp-1045401,Li(MnS2)2,Cubic,Fd-3m,False,0.0,-1.0054767109831684,7.0,-6.844689272262288,-6.766498320042781,-6.68582559085287,-6.600524069314457,-6.507479744127114,-6.361218664432473,-6.0006870714859435,-5.630594596865194,-5.25401820823494,-4.870572310341135,-4.4787323679435165,-4.074725799936578,-3.649021856355338,-3.1398112586184475,-2.602716863152029,-2.0584668212847443,-1.5072167570181154
mp-675711,Li(Mo3S4)2,Triclinic,P-1,False,0.033139482500001094,-0.8678536314444482,15.0,-12.784313151426467,-12.675937523081629,-12.572791702827097,-12.46520117177936,-12.345999115400511,-12.123734290745995,-11.47787474438547,-10.823150126437126,-10.157700811610496,-9.480272330489473,-8.790036098705123,-8.08642716934568,-7.369079806574241,-6.565284523855031,-5.727200975218839,-4.875277543040703,-4.009415663853034
mp-769205,Li(NiS)2,Monoclinic,P2_1/c,False,0.037074402500000936,-0.8247924916666662,5.0,-3.9119288032497574,-3.8423680065782175,-3.7711005475017902,-3.6961273382366215,-3.616309375826499,-3.5087951870700436,-3.293289301076352,-3.0733566598628475,-2.8484589208679925,-2.618259805631874,-2.382544959719998,-2.1411934354797726,-1.8941472341817782,-1.5689319649590265,-1.202723438280021,-0.824960987282747,-0.44169111350916523
mp-1045397,Li(NiS2)2,Cubic,Fd-3m,False,0.06336585785714277,-0.7397726340476193,7.0,-4.952641548208335,-4.866901185164711,-4.778392990323502,-4.684308705626412,-4.583030925463007,-4.429583185630884,-4.063968886529353,-3.6936980950369165,-3.3179217799583487,-2.9360905900153664,-2.5478428650259968,-2.15295476203056,-1.7513001017227305,-1.27035705952955,-0.7472730811915405,-0.21146989735021826,0.33101408828620826
mp-1222716,Li(TaS2)2,Trigonal,P-3m1,False,0.021094406071426874,-1.4720045011428564,7.0,-10.077343990539815,-9.992644134496151,-9.907075187391808,-9.818631088401215,-9.72430561499939,-9.578695293604238,-9.221751703088412,-8.860997347496799,-8.495614288550186,-8.125078049303074,-7.74905598962843,-7.3673595052047,-6.9799183839743595,-6.514246040002572,-6.022671553480816,-5.525769684018844,-5.023546809621376
mp-1223278,Li(TiS2)2,Monoclinic,C2/m,False,0.0,-1.6779983885714214,7.0,-11.556193088205653,-11.480156531090508,-11.402612441706207,-11.321592070726371,-11.234138944291622,-11.094847515958794,-10.743569867269345,-10.387633653327919,-10.023482686386465,-9.648880306258578,-9.268593111040774,-8.88235787341311,-8.489998665403663,-8.018933549468546,-7.5214066184955115,-7.017911790512713,-6.498972104145704
mp-19755,Li(TiS2)3,Trigonal,P-3m1,True,0.014605897999995676,-1.6420547768333322,10.0,-16.303960931661464,-16.233560262516946,-16.16215907884405,-16.08556021041267,-15.99960556632309,-15.836348328068075,-15.355653583300452,-14.868558559165386,-14.369748606089374,-13.855873030654687,-13.334078394759823,-12.803959047075333,-12.265237306979193,-11.645252313139569,-10.99618954667898,-10.33849475683968,-9.657950121188648
mp-1045443,Li(VS2)2,Orthorhombic,Imma,False,0.09408203428571849,-1.2190436076190474,7.0,-8.328820512845603,-8.249515886465066,-8.169118300028666,-8.085605109822307,-7.995941073266073,-7.8546750409733415,-7.501704697429028,-7.144492433707102,-6.782158125696351,-6.414121329202483,-6.039989291127536,-5.659502929873699,-5.2725029003575745,-4.806438357951286,-4.313588634180702,-3.814487031434245,-3.309096397634251
mp-1222722,Li(ZrS2)2,Monoclinic,P2/m,False,0.0,-1.8284407619047596,7.0,-12.63329145434789,-12.563779251069521,-12.49331504228781,-12.419811925595596,-12.340145525387108,-12.208796287860531,-11.865595565946652,-11.517945637748511,-11.16031695178277,-10.794935717739152,-10.424074881851203,-10.047518892603502,-9.6651249878012,-9.204350614260662,-8.71747303064671,-8.22501724790349,-7.726948186814409
mp-766521,Li10Cu4S9,Tetragonal,P4_2/nmc,False,0.09133126036231864,-1.0000089931295282,23.0,-22.2039658187734,-21.917334845708382,-21.60861909592342,-21.29318223081464,-20.960218168389396,-20.50514907579865,-19.566503437874427,-18.61043425021746,-17.63468278745663,-16.63780094050618,-15.601898393327192,-14.520235545799423,-13.416215500642743,-11.565564729610415,-9.491946259453165,-7.401355516050322,-5.293976101266104
mp-768268,Li14Co2S9,Trigonal,P-3,False,0.06918415563333191,-1.2858214533791648,25.0,-31.300143559146115,-30.986012203983705,-30.634869535034916,-30.27477058754747,-29.892963291239425,-29.385521419659284,-28.39063388772079,-27.37420852723986,-26.333800295875697,-25.267802942542417,-24.174978347966945,-23.05565715244257,-21.911163602877735,-19.727636394261225,-17.232081697140465,-14.705890093358134,-12.162116809181335
mp-753585,Li14Fe2S9,Trigonal,P-3,False,0.0673238732000021,-1.3164211859666666,25.0,-32.140699520041146,-31.845358292668884,-31.512483390521485,-31.169852085463763,-30.805473047225185,-30.313734813307185,-29.33212359872199,-28.32784484631311,-27.293868345060694,-26.23600868649688,-25.15363924536322,-24.046576592408485,-22.914892966456975,-20.744449299114585,-18.268190507884192,-15.757010206167799,-13.227499921211939
mp-756198,Li14Mn2S9,Trigonal,P-3,False,0.007765854000002292,-1.4560284297044541,25.0,-35.565030781107595,-35.252150762532,-34.90135566274503,-34.54082074293627,-34.159043868046886,-33.651039579620374,-32.65424019828123,-31.632028811066405,-30.5861952307939,-29.515709461754312,-28.418765420742382,-27.29161435747255,-26.1249135758051,-23.915222043310052,-21.398788818030276,-18.863971367852947,-16.310966961849758
mp-755664,Li2(TaS2)3,Hexagonal,P6_322,False,0.0,-1.5238261330606029,11.0,-16.367326183757992,-16.2249663849896,-16.080042165754836,-15.930788481055872,-15.772419377215897,-15.53666814270425,-14.98337518048926,-14.423778502150068,-13.85663156821929,-13.281143366416774,-12.696818271798273,-12.103384188230986,-11.50074958629274,-10.743972542097309,-9.937727334141023,-9.12317122963847,-8.300316175968085
mp-756195,Li2(VS2)3,Hexagonal,P6_3/mcm,False,0.09553358272727142,-1.2483504156060599,11.0,-13.479816967953465,-13.372904891363957,-13.263092590815306,-13.148590146976884,-13.02456807608949,-12.822688152915656,-12.302709938842137,-11.775781275991672,-11.240562346148876,-10.696178186160427,-10.142043001625662,-9.577778980497397,-9.00316089381468,-8.273150429651686,-7.492347243506347,-6.7018464167612635,-5.9015946016712775
mp-29410,Li2B2S5,Orthorhombic,Cmcm,True,0.0,-0.9955664147222242,9.0,-8.913980697996047,-8.873323574981768,-8.832007891778401,-8.788975167039778,-8.739769640177055,-8.627206423328877,-8.250945201254165,-7.870213358261271,-7.48387812171517,-7.091210751511525,-6.691753585032284,-6.285230150891545,-5.87149324679533,-5.305567022766525,-4.6921090373012255,-4.072265140055579,-3.446046566582236
mp-1178038,Li2BiS2,Orthorhombic,Immm,False,0.0934506000000006,-1.0401557703333328,5.0,-5.058043982201634,-5.00322121043139,-4.931647987066228,-4.848641387456457,-4.761593268364999,-4.647460416941822,-4.426037531752414,-4.201000452881258,-3.9719165536812016,-3.738541798009795,-3.5007385272920057,-3.258452125429365,-3.0116847066633845,-2.6155620252273506,-2.1747999237191085,-1.7305867118014966,-1.2324326418585798
mp-768229,Li2BiS3,Triclinic,P-1,False,0.06644885291666736,-0.9895210756944438,6.0,-5.772705986482075,-5.706088686351076,-5.622190349928809,-5.52592346742837,-5.424440694285558,-5.283636322149835,-4.983454485231797,-4.679543586046459,-4.371315653629839,-4.058420115430288,-3.740645659999042,-3.417886223584082,-3.0901098301384717,-2.612418517042512,-2.089513944530058,-1.5625756210157125,-0.9811097499666595
mp-753632,Li2CrS3,Monoclinic,C2/m,False,0.03764398250000145,-1.1768940781944437,6.0,-6.871715844634361,-6.799406626812914,-6.7224069308180425,-6.642942818920671,-6.558350912976252,-6.434299562778005,-6.1505691465122645,-5.862671257863668,-5.5699018456484986,-5.271797366386991,-4.968048047729721,-4.658453510746144,-4.342885391349734,-3.8763503753117305,-3.363455807687469,-2.845288954574089,-2.3217762920200045
mp-753833,Li2CrS4,Monoclinic,C2/m,False,0.0,-1.0478126723809515,7.0,-7.145009579887922,-7.066319607699003,-6.98240857264031,-6.895097951845544,-6.801485165843057,-6.656176068925543,-6.299100474924455,-5.937742539954957,-5.571242868516501,-5.199031380720131,-4.820724651342681,-4.436070853800072,-4.044907533717312,-3.502217660012663,-2.9125943953774716,-2.317116204660632,-1.7157055149936973
mp-774762,Li2Cu2S3,Monoclinic,C2/c,False,0.08065341952380933,-0.7315888581101179,7.0,-4.884112747970368,-4.800399850487061,-4.71400514494043,-4.625753062291192,-4.5322590828697376,-4.398797040447443,-4.104928816016454,-3.806046530660586,-3.501371630460884,-3.1903656466596537,-2.8641738890702664,-2.5194388670157757,-2.167830535303967,-1.6645199749948834,-1.114276023755254,-0.5583388295971705,0.0032080153999096694
mp-1178005,Li2Cu4S3,Monoclinic,C2/m,False,0.035779546689816755,-0.6138871117013862,9.0,-5.143826671823229,-5.025245614395323,-4.90793583043123,-4.789783752301938,-4.665844424206913,-4.500499004820533,-4.172770810554297,-3.83770937423707,-3.494302149175672,-3.1418089945298977,-2.7627281475625107,-2.35045572848216,-1.928378763113221,-1.3517587440706968,-0.7254532609435973,-0.09078850230086033,0.5520657224332872
mp-752881,Li2CuS2,Monoclinic,C2/m,False,0.08721750266666639,-0.9389998897916663,5.0,-4.527668857468356,-4.467164326254735,-4.402532030910566,-4.336469986828662,-4.266613093731976,-4.169744018440902,-3.9655444885927977,-3.7576053569684236,-3.545420410352767,-3.3286585524385863,-3.102862282188288,-2.8663487511356767,-2.6249634688686925,-2.233856027522889,-1.7977650711678397,-1.3578965287854494,-0.9142949326996668
mp-675779,Li2Mo3S4,Triclinic,P1,False,0.0,-1.072307762731482,9.0,-9.415882358805076,-9.327276541898222,-9.237503277410456,-9.14545744462162,-9.046725776594725,-8.895098148384935,-8.530047687255184,-8.15880198479994,-7.7803723322282945,-7.3941186042464935,-6.9996365144089605,-6.596676020308383,-6.185095620018718,-5.6199044353201195,-5.00572426785528,-4.383664692211699,-3.7536835677695493
mp-2492941,Li2NbS3,Triclinic,P-1,False,0.05848360343567105,-1.3991966265277764,6.0,-8.201828790617107,-8.128420125569397,-8.050361403139057,-7.969948126442743,-7.8845853217511,-7.7600087068420045,-7.476069137178058,-7.188352829442284,-6.896227246157766,-6.599304503273665,-6.297345305716812,-5.99022286112453,-5.67788239197815,-5.215401061325169,-4.707457727927718,-4.1952090987286645,-3.67865109062215
mp-849803,Li2Ni2S3,Monoclinic,C2/c,False,0.09625107476190387,-0.9047289991666665,7.0,-6.089987228403359,-6.003027747709421,-5.91130945216354,-5.814916761325697,-5.711918231133887,-5.568076890571178,-5.263072773710512,-4.9523518960234245,-4.635181306534431,-4.3111095966506205,-3.979855429556358,-3.641268030644559,-3.295282888225614,-2.796977804611588,-2.2358757243251883,-1.6619974348561488,-1.0813901495722043
mp-776356,Li2SbS2,Orthorhombic,P2_12_12_1,False,0.06873341275000033,-1.0323188150833325,5.0,-5.039257970729235,-4.989749172166137,-4.936002747835973,-4.880708421687279,-4.821450308346888,-4.734940597358925,-4.518906308375059,-4.297941558932225,-4.072549619154792,-3.842505108649908,-3.6076973160364005,-3.368097535979137,-3.1237286113302893,-2.7297308063506156,-2.290839655818087,-1.8711211187710948,-1.3828076323892677
mp-1210789,Li2SiS3,Orthorhombic,Cmc2_1,False,0.0,-1.306160535694442,6.0,-7.742674524025777,-7.695395371161986,-7.644013396237115,-7.590672783509971,-7.532686316933738,-7.435729601315366,-7.179608925604523,-6.919880449998773,-6.655888835549464,-6.387230651747762,-6.1136572756457,-5.835037769158465,-5.551314245475786,-5.112937241744763,-4.603058954552065,-4.089145879926939,-3.5712198455268584
mp-1190364,Li2SnS3,Monoclinic,C2/c,True,0.0006651347916664108,-1.1318516215277772,6.0,-6.568647329024177,-6.486733672326871,-6.385668222225794,-6.281087415661509,-6.171307301343385,-6.022152730075154,-5.713533633859816,-5.401084941615454,-5.084215573086482,-4.762569773568592,-4.4359445230572785,-4.104242049244798,-3.767435558236871,-3.280633305997,-2.748540062050644,-2.2123415533956035,-1.6720616805504136
mp-558731,Li2TeS3,Monoclinic,P2_1/c,True,0.0,-0.9290268534722218,6.0,-5.414674136729406,-5.349427793646859,-5.2794132401008955,-5.206913542041769,-5.109422858765985,-4.965621925411627,-4.661647548625424,-4.353362672042771,-4.040258093420212,-3.722022624566364,-3.3403768605464244,-2.9689448510975254,-2.5928410159855426,-2.067141481827445,-1.496526662031167,-0.9221542999701047,-0.34402653112159953
mp-753863,Li2Ti2S5,Monoclinic,C2/c,False,0.07035777638888252,-1.5139770728703696,9.0,-13.445130937556486,-13.361749452468239,-13.273808282663783,-13.181422186160571,-13.080842247993433,-12.915277423903651,-12.484555300396522,-12.047884606030813,-11.60151454464452,-11.143093325918237,-10.67732056556734,-10.2039032093174,-9.7226588162363,-9.08855764195921,-8.406190913428079,-7.716634003022804,-7.010410661194733
mp-756394,Li2V2S5,Monoclinic,C2/c,False,0.09773226999999896,-1.2173153560185186,9.0,-10.739780793284368,-10.647954842952725,-10.551983780118164,-10.451928468410419,-10.343961224143792,-10.171245400116096,-9.7336541857761,-9.290531045651884,-8.840801247218282,-8.383769216148014,-7.918975216961972,-7.44613034110785,-6.9650687305420735,-6.330791733815797,-5.647925816509112,-4.95758573536218,-4.259735050123119
mp-753195,Li2WS4,Tetragonal,I-42m,False,0.0,-1.1397955252380945,7.0,-8.051539849161253,-8.0384987190861,-8.02038888142956,-7.999095035587866,-7.9717674600465545,-7.893061757763927,-7.602960600528622,-7.309008257426738,-7.010408555220257,-6.706654636282744,-6.397433552667296,-6.082562918635562,-5.761955939241478,-5.2906702064017,-4.773376615097558,-4.2512303260374225,-3.724234607934427
mp-767412,Li3(CoS2)4,Trigonal,R3m,False,0.05325609099999973,-0.7511704468333297,15.0,-10.799310954595034,-10.621790171684136,-10.438591801931693,-10.247669455178865,-10.039741998599919,-9.725656992173045,-8.984646176306315,-8.231086814736617,-7.4626238683786,-6.677325042247407,-5.8732838642195375,-5.051135573940712,-4.213180134905542,-3.142534354820885,-1.9843194879662498,-0.7866483205100288,0.4244472244112423
mp-755947,Li3(CrS2)4,Trigonal,R3m,False,0.030503620333333537,-1.147219221333333,15.0,-16.944953587379313,-16.821299310427115,-16.693613298320155,-16.559977678285726,-16.41346194194749,-16.162604482055567,-15.486798722181215,-14.800658232222906,-14.102184505198718,-13.389992481445354,-12.663104330597093,-11.920816224050718,-11.162613179972535,-10.170737258699347,-9.1018679878174,-8.017438358708326,-6.917146667520015
mp-675383,Li3(Mo3S4)2,Triclinic,P1,False,0.006942668823533893,-1.0149784325000004,17.0,-16.87839176680676,-16.727818517005474,-16.577431939793076,-16.422533701248184,-16.254850507275503,-15.982285110300415,-15.283957695530034,-14.574414935129727,-13.851718675614787,-13.114597260121512,-12.362235445266144,-11.594111525535023,-10.809914919747794,-9.792087961432724,-8.697512937457006,-7.587818741395651,-6.462916331266364
mp-1177739,Li3(VS2)4,Trigonal,R3m,False,0.06359484466666654,-1.2946430533333333,15.0,-18.97771669469786,-18.807612508308516,-18.632800834056738,-18.451724476995388,-18.257759712185965,-17.959681238540156,-17.237110494346563,-16.504880772776684,-15.76119256151098,-15.00487637843707,-14.235153387851618,-13.451527047258054,-12.653706243817872,-11.62416519830731,-10.519823890196339,-9.402339179861766,-8.271641523890928
mp-28471,Li3AsS3,Orthorhombic,Pna2_1,True,0.0,-1.0668014283482148,7.0,-7.289064096486462,-7.216103743402841,-7.135967619463756,-7.053425846669981,-6.965313628624944,-6.837025025041889,-6.5482224506746824,-6.254387159632998,-5.954840095329073,-5.649183743557732,-5.3372227912376,-4.951379402560358,-4.554103446310062,-3.933875844454666,-3.2477289989455045,-2.5574015808811517,-1.8628958225442105
mp-15999,Li3AuS2,Orthorhombic,Ibam,True,0.0,-1.188375173437502,6.0,-6.895461316655684,-6.814633057068207,-6.727103644072813,-6.638081987015104,-6.54466218300575,-6.423319443008099,-6.1935729647141144,-5.958926257650266,-5.718820370907495,-5.472917687315832,-5.214794012594972,-4.947183620869257,-4.673665978284834,-4.17695725913448,-3.614150168892243,-3.047033637126267,-2.4756517747504994
mp-5614,Li3BS3,Orthorhombic,Pnma,True,0.0,-1.2526352234523759,7.0,-8.625395403988932,-8.565372062254234,-8.499711012575396,-8.432656906672847,-8.360755784031246,-8.249237948339577,-7.977660098437312,-7.7014392297410765,-7.419852755580699,-7.132465850251814,-6.839026196993712,-6.53941307768477,-6.233591000690321,-5.704212002659354,-5.108320404494341,-4.507665241599192,-3.9022596287771023
mp-753720,Li3BiS3,Trigonal,R-3,False,0.02513505000000027,-1.1894432039285705,7.0,-8.134279460853627,-8.057556508435583,-7.961030951975568,-7.852103374167722,-7.737373190669176,-7.582411690814347,-7.266989078132561,-6.946662266162423,-6.620804019842826,-6.28905517289833,-5.9512110843727495,-5.607187311213135,-5.256979454700808,-4.683265462248093,-4.04310831050706,-3.3982777634922847,-2.698284785413602