,pretty_formula,crystal_system,spacegroup,experimentally_observed,"energy_above_hull, eV/atom",Ef,total_atoms,Gf_400,Gf_500,Gf_600,Gf_700,Gf_800,Gf_900,Gf_1000,Gf_1100,Gf_1200,Gf_1300,Gf_1400,Gf_1500,Gf_1600,Gf_1700,Gf_1800,Gf_1900,Gf_2000
mp-1218136,Ta4NiS8,Trigonal,P-3m1,False,0.04150513771091369,-1.2521594684102553,13.0,-16.185402874557308,-16.112413873728112,-16.04366786364823,-15.968337532709173,-15.881463235156684,-15.692682288514005,-15.082035506139032,-14.464606527140775,-13.838743808239657,-13.20335827703342,-12.557734452693012,-11.901432048654938,-11.234246788407212,-10.556052246419604,-9.859205379627795,-9.148108536068559,-8.425789869582577
mp-669370,Ta5AuS,Cubic,F-43m,True,0.0,-0.38754214416666294,7.0,-2.864528985423002,-2.8982687775662104,-2.9428397429385225,-2.9892015666852454,-3.0326068229855543,-3.0594860020859227,-3.028550075510707,-2.990913815533027,-2.945898165565116,-2.8930734820552715,-2.8259574643074554,-2.7472598859863346,-2.660608000961725,-2.56609489889604,-2.4638047514457497,-2.353813795134112,-2.2362004398879147
mp-676291,Ta6Te3S,Triclinic,P-1,False,0.0,-0.5627760736499984,10.0,-5.655354490375812,-5.658803031675906,-5.678645472087044,-5.701411697398202,-5.660328702474277,-5.579385202828876,-5.435423018249343,-5.279970643953619,-5.112506921584433,-4.932732927429207,-4.566225549343827,-4.234125490354454,-3.8919989834007565,-3.539905797300657,-3.1779062123682777,-2.8060614621180067,-2.424435218649682
mp-29580,Ta9(CoS3)2,Hexagonal,P-62m,True,0.0,-0.9222580194705856,17.0,-15.494355765748562,-15.413492782588023,-15.349498857879464,-15.283868330137622,-15.205579291493056,-15.044677832713882,-14.559214542696914,-14.059217256482569,-13.54254882592377,-13.007639102163225,-12.453176391591764,-11.879323032847672,-11.287293034064977,-10.677379171846013,-10.043681953506745,-9.379443476747184,-8.69774462237094
mp-3652,Ta9(FeS3)2,Hexagonal,P-62m,True,0.0,-0.9186375782941157,17.0,-15.44017440431022,-15.361052422028372,-15.298277137209745,-15.233065124986176,-15.155155217499614,-14.992908269471128,-14.503672169895996,-13.998772364842246,-13.471486537483738,-12.927665381581203,-12.36660869754009,-11.78796475445418,-11.19169555237336,-10.577816104517037,-9.94636566515669,-9.280089363551607,-8.59560438148484
mp-3824,Ta9(NiS3)2,Hexagonal,P-62m,True,0.0,-0.9164909347647063,17.0,-15.393911898387579,-15.311751577068446,-15.245270491949125,-15.175421964806006,-15.093930628682745,-14.93028082899843,-14.442823719504524,-13.941862825763288,-13.425569855926543,-12.892787160489242,-12.342797956968283,-11.775233931568927,-11.190046720035735,-10.587236825560645,-9.951672232269509,-9.29225550321961,-8.615092341725862
mp-620369,TaAg7S6,Monoclinic,Pc,True,0.018544185000001434,-0.4725009852857127,14.0,-6.656264569393511,-6.631116998333642,-6.617892436011092,-6.60249325525573,-6.5772383578590805,-6.472133358195007,-6.045852207396381,-5.608835052693792,-5.159259460032814,-4.651864421835363,-4.106858368786892,-3.546731895529774,-2.971608867734936,-2.3817013754905254,-1.7772617129826855,-1.158562579199792,-0.525904857839528
mp-5821,TaAgS3,Orthorhombic,Cmcm,True,0.0,-0.9549632802999994,5.0,-4.772236348833975,-4.753177264421485,-4.736302277825903,-4.71749798297556,-4.694513286952071,-4.633287720337031,-4.413749681234714,-4.19149914301457,-3.9658754643121377,-3.7301460356315914,-3.487020791287983,-3.2396005279413105,-2.9878464208270152,-2.731751820177765,-2.471332874338419,-2.2066181272051075,-1.937649520025447
mp-1247747,TaCr3S8,Trigonal,R-3m,False,0.029177094722211194,-1.0001883414444446,12.0,-12.081277077868496,-12.052603215068356,-12.027405316686249,-11.99639969340696,-11.954406762077106,-11.811016836834604,-11.246229084167698,-10.675016528207838,-10.095579295846042,-9.506639986602533,-8.90728056378489,-8.296819396857522,-7.674759305763651,-7.040704790200401,-6.394336415803128,-5.735393103013006,-5.063638670900975
mp-10748,TaCu3S4,Cubic,P-43m,True,0.0,-0.8675523021666667,8.0,-6.982373967429853,-6.969483410867647,-6.962287545548462,-6.953323126659946,-6.938544605978348,-6.871947744223614,-6.593086320591949,-6.309198574072651,-6.019233489779664,-5.722417545159981,-5.405463170330418,-5.063292773801962,-4.713364886829709,-4.355736445056682,-3.9904960935249694,-3.617747542578254,-3.237612829030976
mp-1217959,TaCuS2,Hexagonal,P6_3mc,False,0.06182721499999655,-1.0111149243333335,4.0,-4.013130452797254,-3.9934960964610253,-3.976664519233378,-3.9589196451661355,-3.9382547648206843,-3.891683305015,-3.7389987382357157,-3.5838367668660087,-3.4256910574277217,-3.2642028322687464,-3.0948788998039687,-2.915990952965883,-2.7333486325698857,-2.5469658964100272,-2.356871002334085,-2.1630992226253642,-1.965694474587294
mp-3102,TaCuS3,Orthorhombic,Pnma,True,0.0,-1.0645468754666638,5.0,-5.3223874170274845,-5.304125502942954,-5.288135783270658,-5.270297596925191,-5.248365033140841,-5.188289023235061,-4.970012475339598,-4.749143654268164,-4.5250208822257605,-4.297178845151093,-4.061050698585307,-3.8148566878073566,-3.56437236334418,-3.309587966136844,-3.050517571669145,-2.787187650976138,-2.5196380724443834
mp-999139,TaHgS2,Trigonal,R-3m,True,0.031977455624996765,-1.0033468537083339,4.0,-3.957931230574161,-3.93132924253564,-3.907266780250257,-3.814859814201921,-3.6906506322054815,-3.5414044359661996,-3.2868836050547108,-3.0307062225351293,-2.7723618092071636,-2.5115174981820356,-2.247952264532664,-1.9815339042127338,-1.712195496914152,-1.439898142473779,-1.1646244957959206,-0.8863683719425612,-0.6051374131484586
mp-22332,TaInS2,Hexagonal,P-6m2,True,0.0,-1.104249489749999,4.0,-4.373178250449627,-4.343751588520768,-4.3140515798778285,-4.282939751308799,-4.248565894385594,-4.188066771159639,-4.021335351448762,-3.8520861063566674,-3.6798873254035884,-3.5044704003938096,-3.3256733829406446,-3.1434065626496412,-2.9576475857256366,-2.7683917542130834,-2.575652815932293,-2.379455678861243,-2.1798297502758865
mp-1217910,TaMoS4,Monoclinic,Pm,False,0.019712034791650623,-1.273812709555557,6.0,-7.697024962294401,-7.686135616308386,-7.677010681509987,-7.6651062559269825,-7.647934118174946,-7.580390995515089,-7.302579596029592,-7.022092147698574,-6.738132357020865,-6.450163612164102,-6.157827946759063,-5.860888188591282,-5.5592071639146905,-5.252690247415909,-4.941278255674339,-4.624933927658557,-4.303638152019971
mp-20985,TaPbS2,Hexagonal,P6_3/mmc,True,0.0,-1.119578698083333,4.0,-4.461364623188141,-4.444425673104412,-4.4297536675435785,-4.40540741784564,-4.377590817256344,-4.323537015866707,-4.1631783678548215,-4.000268728684654,-3.8344095536535017,-3.6653560724679153,-3.4929546281854726,-3.317117583272788,-3.1378153289209703,-2.9550359121607315,-2.768782716507056,-2.57906821277152,-2.3859135167858136
mp-4538,TaSnS2,Hexagonal,P6_3/mmc,True,0.0033886012499975138,-1.0928753168333323,4.0,-4.3582183884008145,-4.341842578950786,-4.3137761040324625,-4.283645894382641,-4.250365590876233,-4.191053299815067,-4.025581262406307,-3.857656694739924,-3.686843740614017,-3.5128655003886045,-3.3355569163854035,-3.1548262053488925,-2.9706447949007107,-2.7830090235158433,-2.591927456861935,-2.3974239664864285,-2.1995258868042162
mp-7562,TaTl3S4,Cubic,I-43m,True,0.0,-0.9303165059166698,8.0,-7.3996596809282,-7.363213852759879,-7.322550294214637,-7.2606229237697555,-7.191656390641496,-7.070007133375375,-6.735514985994776,-6.395682477274969,-6.0497011170746795,-5.697077219084878,-5.337529380184048,-4.970911345360353,-4.597188771328799,-4.216378172941631,-3.670945766884179,-2.9853472353092165,-2.29415038380354
mp-10795,TaTlS3,Orthorhombic,Pnma,True,0.0006694811538485723,-1.0857615926333366,5.0,-5.438757749160434,-5.422287257490569,-5.404784819692957,-5.378935495778739,-5.348583440795537,-5.279799812002665,-5.052622869140927,-4.82274897361936,-4.58959728922456,-4.35279578064322,-4.112112992337052,-3.867412948410724,-3.6186402412111516,-3.365771638082471,-3.056280405056228,-2.6983103371038446,-2.336716558869325
mp-1217848,Tb(CuS)3,Trigonal,R-3,False,0.0,-1.009717990491071,7.0,-6.917080081502468,-6.86120422555777,-6.811089324673549,-6.759603132606814,-6.702849133004531,-6.605816141241433,-6.347847351467154,-6.084155582283259,-5.813789195871739,-5.536029384562118,-5.237608336957209,-4.9134315048063595,-4.579683534320157,-4.231586291654775,-3.8734266742789925,-3.5074014555870665,-3.1337113443087254
mp-1103853,Tb(Mo3S4)2,Trigonal,R-3,True,0.0,-1.050003309500003,15.0,-15.863192831410192,-15.843957563264802,-15.833896757819247,-15.819336310762232,-15.79282438915919,-15.662748066902397,-15.108452055328046,-14.544566507223141,-13.969136445688154,-13.380819304711647,-12.778703585482038,-12.162132098770094,-11.529422841961697,-10.875447817871752,-10.204201680790153,-9.517636673795664,-8.815733002141208
mp-34376,Tb2CdS4,Tetragonal,I-42d,False,0.0996796389285679,-1.8425344397619037,7.0,-12.624586259564838,-12.529175677587787,-12.435339907747442,-12.327401334054223,-12.21222988053442,-12.04428008262289,-11.663384329680955,-11.217214371750295,-10.726005283973468,-10.228491541573714,-9.724176748399735,-9.212684706203474,-8.691285722179089,-8.150190002639256,-7.597734297361395,-7.038071124156012,-6.471360252746756
mp-1173110,Tb2EuS4,Tetragonal,I-42d,False,0.018816824285735834,-2.3918542287499998,7.0,-16.40054326754878,-16.28750396875491,-16.176806440692342,-16.062490640051188,-15.941246670160234,-15.767490718524586,-15.381025118020116,-14.989037605629477,-14.58867365707563,-14.181023554183867,-13.765667596662365,-13.342293844956114,-12.908227537077543,-12.453730700865993,-11.882374578507017,-11.31055296883927,-10.731681588106582
mp-1199006,Tb2HfS5,Orthorhombic,Pnma,True,0.0,-2.173035694882813,8.0,-17.19337049608261,-17.112302447934464,-17.033047658682346,-16.94907670742435,-16.85673270738669,-16.699289545422914,-16.276645095666264,-15.848126522845785,-15.41260197049383,-14.969296361411597,-14.51766452090686,-14.05730160454973,-13.585461448564992,-13.092352307453528,-12.586308149364637,-12.071490310179652,-11.548066947871742
mp-1232112,Tb2MgS4,Cubic,Fd-3m,False,0.014112711071432749,-2.15586669904762,7.0,-14.809101279691273,-14.711879251522124,-14.61710781929028,-14.518628981453979,-14.412984631775773,-14.25446036751357,-13.875353728052026,-13.488063623094945,-13.093888505511993,-12.692239639664608,-12.251464491141675,-11.737690463291223,-11.214009493612648,-10.670632824849164,-10.115894097486581,-9.553949975057542,-8.98495608156356
mp-1217708,Tb2MnS4,Orthorhombic,Cmc2_1,False,0.021852672142859575,-2.0110449351046804,7.0,-13.808071053195386,-13.71320533392085,-13.6201445143614,-13.522738884419562,-13.41755313932959,-13.258917442862348,-12.886096220446941,-12.505053184606265,-12.116766531175216,-11.720641305932034,-11.315612112362684,-10.899537711020978,-10.464993378785493,-10.007553886408974,-9.537214272522027,-9.058214115099943,-8.570787806864777
mp-675645,Tb2PbS4,Tetragonal,I-42d,False,0.062173990357139,-1.8569671133333325,7.0,-12.751997478419705,-12.662950361966924,-12.576067786624264,-12.477014313942695,-12.370587006882023,-12.211339898208294,-11.839145798073623,-11.461459842538247,-11.077382215310825,-10.686306561433732,-10.287801779879276,-9.88153831177338,-9.464821702948342,-9.027891179771775,-8.579102147770682,-8.122627853366243,-7.658639467017969
mp-38931,Tb2SmS4,Tetragonal,I-42d,False,0.062025144071423455,-2.285413391190475,7.0,-15.680366566797323,-15.571748060125307,-15.463690736528491,-15.35005214092312,-15.227410442140393,-15.050108241117565,-14.65789604920384,-14.25813157798932,-13.849570916245622,-13.42977529983235,-12.997400532422038,-12.552706784114013,-12.09606950798004,-11.617830537010521,-11.12643440975833,-10.626138323517822,-10.117187035316388
mp-555069,Tb2SnS5,Orthorhombic,Pbam,True,0.018011678437497736,-1.7311473469791672,8.0,-13.58416926211826,-13.483836035239783,-13.371179154783892,-13.253026716561122,-13.126646329833346,-12.935414488076898,-12.47929332411808,-12.017663897073668,-11.549433734836281,-11.073857816692573,-10.590419988005259,-10.098735096524575,-9.59607563422491,-9.072665402065134,-8.53685080536096,-7.992807690021168,-7.440709396171609
mp-1217684,Tb2TeS2,Orthorhombic,Immm,False,0.0,-2.163723173125001,5.0,-10.633358362808906,-10.573005984677888,-10.516305289998847,-10.457944759003688,-10.375087715522744,-10.257154023868239,-10.029884384574885,-9.796970184185156,-9.557866861554313,-9.312193571709518,-9.001578733704385,-8.69951336029467,-8.388513427980266,-8.058841758932484,-7.718862949441455,-7.3727512655362855,-7.020670429052252
mp-1197252,Tb2ZrS5,Orthorhombic,Pnma,True,0.0,-2.1887114804166696,8.0,-17.254222224760518,-17.157284491437515,-17.06238595886678,-16.963002388299085,-16.85545409148891,-16.682985935234868,-16.245454336448873,-15.80214189334704,-15.349568197873396,-14.888337661868878,-14.419209976682623,-13.941770970009937,-13.453255822326009,-12.943848950229459,-12.421858411106246,-11.891413411491177,-11.352648943580366
mp-1208516,Tb3CrS6,Orthorhombic,Pnnm,False,0.0,-2.033017144499997,10.0,-19.906399301906855,-19.760629989216568,-19.61789084034168,-19.46968349833914,-19.311218686114472,-19.074169215154754,-18.518219834200014,-17.9544098432565,-17.381243839265693,-16.797665786010473,-16.202902879684828,-15.59634529214426,-14.97384116543348,-14.320646412848834,-13.649192149549219,-12.96564107559825,-12.270148587197944
mp-20606,Tb3In5S12,Monoclinic,P2_1/m,True,0.004600744250002009,-1.3560481046874997,20.0,-26.536034761108105,-26.280579197246748,-26.017527952310154,-25.74303454301806,-25.44859519364445,-24.998390890173283,-23.912474137806026,-22.813480099751523,-21.698928930145627,-20.567198788196343,-19.417215642184225,-18.248227265990813,-17.05609121229648,-15.826127827152902,-14.57090520189255,-13.296763350313164,-12.004047267026365
mp-1204721,Tb3InS6,Orthorhombic,P2_12_12,True,0.004122721812498398,-1.9865160198750005,10.0,-19.460944874519274,-19.313247126496904,-19.165535545813796,-19.01195674624775,-18.84793702825518,-18.605324360083294,-18.043953772899442,-17.474995156957057,-16.897070225847887,-16.309239023574527,-15.710838607967485,-15.101363830366122,-14.476770621590608,-13.82241542869901,-13.150831973473025,-12.468282453307463,-11.775021761735509
mp-1217634,Tb3Sc2S7,Monoclinic,C2/m,False,0.0,-2.30993844622396,12.0,-27.260945900192702,-27.099875499086437,-26.942944377939483,-26.779864546249904,-26.604861509738235,-26.338101319703632,-25.699151987532478,-25.050858227256235,-24.39146162298723,-23.719730895404435,-23.03477132750241,-22.335892479086034,-21.618889339865863,-20.86403646187874,-20.087975078221312,-19.283312430835466,-18.46268014207768
mp-16402,Tb4(SiS4)3,Monoclinic,P2_1/c,True,0.0,-1.6297511540131584,19.0,-30.541493407624106,-30.36174543730492,-30.18891900065298,-30.007258368359754,-29.807950694274265,-29.45483457829317,-28.467631714629498,-27.468713259795628,-26.455344285753082,-25.425659692814083,-24.3783476547577,-23.31244880370092,-22.222366986582152,-21.074556801622414,-19.821049659689734,-18.54905357674216,-17.258927442398274
mp-1217639,Tb4CeS7,Monoclinic,Cm,False,0.031833769583329286,-2.354215260390634,12.0,-27.752165838460826,-27.579340435969215,-27.409684214457798,-27.232817977537728,-27.042888462209,-26.760035809007412,-26.10379279068127,-25.432480101984396,-24.74533533677157,-24.04503144954048,-23.330810532116104,-22.60209926095355,-21.853570171495882,-21.06575174126059,-20.25539402855031,-19.430870456578628,-18.59254441948001
mp-1197305,Tb4In5S13,Orthorhombic,Pbam,True,0.039149575909085854,-1.4470574937073841,22.0,-31.132088625720627,-30.839924412618664,-30.541057020603954,-30.22972388831224,-29.8963437805151,-29.39355050221775,-28.201248728352034,-26.993855198249733,-25.768600106023694,-24.523658384153595,-23.257806104096186,-21.970168970461035,-20.655281756191144,-19.293598489867897,-17.901869397137077,-16.48851980685192,-15.053974194170358
mp-33449,Tb5AgS8,Tetragonal,I-4,False,0.031726990624997065,-2.112350992499999,14.0,-28.951654383793542,-28.74183353449716,-28.536771886092318,-28.324213548466467,-28.09726821990798,-27.764554770737256,-27.005498564223753,-26.23474558270197,-25.45026403314977,-24.644350041222214,-23.818986406677652,-22.97666579701955,-22.11071620291233,-21.19678320151469,-20.255781366123507,-19.298155961410924,-18.324337424891326
mp-530870,Tb6CdS10,Triclinic,P1,False,0.04622242470587867,-2.1496126633823525,17.0,-35.801926788790524,-35.548100837954046,-35.29835853851146,-35.02854879186292,-34.74075328137078,-34.3211128275539,-33.36916736998538,-32.343660088059636,-31.263355528193557,-30.165962185878698,-29.050236771921092,-27.91521191567776,-26.75279862481638,-25.533694402062487,-24.282936169718838,-23.01300010332136,-21.724355796945197
mp-1208370,TbAgS2,Monoclinic,P2_1,False,0.0008333021874999957,-1.5694378882291664,4.0,-6.1693806978355425,-6.129113963944674,-6.091097591688166,-6.051549173563716,-6.008366648523653,-5.938482601804359,-5.76161484646354,-5.581337935482915,-5.39709060456606,-5.202194959099684,-4.999380691884845,-4.7917316428198875,-4.577935102095761,-4.353149350458268,-4.121588788678955,-3.885375023704551,-3.644628668697939
mp-1101828,TbAsS,Orthorhombic,Pnma,False,0.0,-1.733057741041667,3.0,-5.0712632036296865,-5.03269986677678,-4.997009718572044,-4.960796280900796,-4.92219462118141,-4.869208111595044,-4.761424821734429,-4.650464361469812,-4.535941539432276,-4.4176010050873025,-4.295298495673147,-4.101423586973022,-3.8971229069141247,-3.6833544804570106,-3.464291441703681,-3.242013413752975,-3.016599973956458
mp-863748,TbBS3,Orthorhombic,Pna2_1,True,0.03718581202999882,-1.5166083746666659,5.0,-7.44014408231441,-7.389150870874458,-7.34150774160131,-7.292483575825488,-7.2394458741923735,-7.148109261857842,-6.898254963790455,-6.64538345602847,-6.388755328486892,-6.127864846313626,-5.862363437320129,-5.591994899669212,-5.315352320292444,-5.027517405125449,-4.732646842493389,-4.432813017303955,-4.1280982915955615
mp-5737,TbCuS2,Monoclinic,P2_1/c,True,0.0,-1.60478658140625,4.0,-6.269602394754324,-6.219281289153979,-6.171298641783322,-6.121864790126314,-6.0688828552879555,-5.989296823240489,-5.802839017069086,-5.613092281199734,-5.419494314905477,-5.221634519007543,-5.014965807533093,-4.797691468999423,-4.5743131688889775,-4.339986078655966,-4.098922526210864,-3.853242045639332,-3.6030631772431922
mp-1217604,TbEu4S5,Tetragonal,I4/mmm,False,0.0090217050000021,-2.414840405906247,10.0,-23.56126574760152,-23.380277787569756,-23.20453173411132,-23.025218301123218,-22.837596923746013,-22.58441260085343,-22.065311733255758,-21.538683986301024,-20.995762360309463,-20.44275671531727,-19.879332139418707,-19.305301149911593,-18.719360518161242,-18.116717445228957,-17.08243868911965,-16.067537444792528,-15.045136409066291
mp-1188262,TbScS3,Orthorhombic,Pnma,False,0.0,-2.284040213187498,5.0,-11.26805035541235,-11.21034012076009,-11.154253275006255,-11.095603861941843,-11.032043364178353,-10.929428397854707,-10.667616883798935,-10.402140390965286,-10.132264691421433,-9.85747575887102,-9.577401183223229,-9.29175677901648,-8.999101430974747,-8.692005573851599,-8.376698757038685,-8.048441943979226,-7.713511205578296
mp-999119,TbTlS2,Trigonal,R-3m,True,0.0,-1.7323583362500004,4.0,-6.795707675616987,-6.7485583712283255,-6.700443384529372,-6.644378774100632,-6.584357726860439,-6.4974444547229,-6.303466632382241,-6.106095200859776,-5.904848701010138,-5.6994098124025525,-5.489566837984736,-5.275166845099708,-5.054880541049888,-4.823849623692548,-4.533745611485922,-4.194805362452032,-3.8519626731501457
mp-1025986,Te2Mo3S4,Hexagonal,P-6m2,False,0.06936899222222337,-0.6767558023611097,9.0,-6.361660773269296,-6.4065112148134915,-6.458970702532284,-6.509999203542996,-6.514926416136404,-6.453216672537173,-6.176763683518626,-5.893234487221333,-5.601789620851164,-5.301857363529567,-4.8768765132282255,-4.474024088741054,-4.063426505434856,-3.6449319792494954,-3.2184403343182115,-2.7838879058648587,-2.3412325532696308