,pretty_formula,crystal_system,spacegroup,experimentally_observed,"energy_above_hull, eV/atom",Ef,total_atoms,Gf_400,Gf_500,Gf_600,Gf_700,Gf_800,Gf_900,Gf_1000,Gf_1100,Gf_1200,Gf_1300,Gf_1400,Gf_1500,Gf_1600,Gf_1700,Gf_1800,Gf_1900,Gf_2000
mp-1216784,TiMoS3,Monoclinic,P2_1/m,False,0.04108673299999577,-1.3676511381666656,5.0,-6.81364920404172,-6.7891643526794265,-6.7666552765968575,-6.742001314708616,-6.712978321290175,-6.645544482672733,-6.419603322627763,-6.190677082234725,-5.956755687574871,-5.716552971604571,-5.472334239940119,-5.2238764565213955,-4.971023679933587,-4.713657325911775,-4.451689899747488,-4.185052520866737,-3.9089884571482187
mp-34289,TiNbS4,Monoclinic,C2/m,False,0.019198997499993098,-1.4581869922222215,6.0,-8.733654526858173,-8.704933620418139,-8.67764339453402,-8.64727933159385,-8.611390521712407,-8.5248799107341,-8.227809785950308,-7.927686351606896,-7.62235248091254,-7.310429980441892,-6.994119830812304,-6.67316102190704,-6.347375959189243,-6.016634778707395,-5.680849276985981,-5.339956282230228,-4.989205377707297
mp-1216680,TiTeS,Trigonal,P3m1,False,0.0,-1.3187886575000018,3.0,-3.9393107255811284,-3.929008576301518,-3.9216107085860736,-3.913813923068107,-3.8839740468695734,-3.8331265296966324,-3.727171303089471,-3.6179736109547145,-3.50396569468501,-3.384165665942041,-3.202955354102735,-3.0339789341107966,-2.8623302795792807,-2.687949640685096,-2.5107929156904794,-2.3308243729759193,-2.1433119611423965
mp-1216761,TiVS2,Orthorhombic,Pmc2_1,False,0.07092904593749871,-1.4048942583333321,4.0,-5.544321798479864,-5.513123729712239,-5.484208151925509,-5.453900446392822,-5.420236397327434,-5.360235650130516,-5.193648147206305,-5.024015275759455,-4.849468832591126,-4.668821932053146,-4.484402131899678,-4.296029552279883,-4.103577159914737,-3.9069500873923033,-3.7060770952291637,-3.5008991405301018,-3.2866625036601578
mp-5501,Tl(CoS)2,Tetragonal,I4/mmm,True,0.05502371809722284,-0.5440265516666685,5.0,-2.6426597613210534,-2.6104923032358425,-2.579001972972205,-2.5395793288052593,-2.4942019143922542,-2.420576892589233,-2.238108227650647,-2.0500934625163474,-1.8556885076174856,-1.6541456215724537,-1.444660720973344,-1.2276424741700431,-1.0042952548226332,-0.7748927676230144,-0.48098559632051074,-0.12392269731061312,0.23842064618881054
mp-557929,Tl(Cu3S2)2,Tetragonal,I4/mmm,True,0.01637022511362929,-0.35577298121212214,11.0,-3.8326272308719034,-3.790224066419455,-3.7562302079866106,-3.7155500410569724,-3.6678552996772096,-3.565891864947634,-3.2484678550254706,-2.9223625573358447,-2.5862164614832466,-2.2389908482900864,-1.8544617412548732,-1.4227047666887032,-0.9787623538158384,-0.5228426020697423,-0.0026586042701932655,0.5734063786904287,1.1602515255154593
mp-8676,Tl(CuS)2,Tetragonal,I4/mmm,True,0.0,-0.4532331476666684,5.0,-2.182702126939212,-2.150060490410118,-2.118983166239055,-2.0810597073635226,-2.039561122746259,-1.9711436346825941,-1.795393619200837,-1.6158304153749494,-1.431873186991524,-1.2430996318563956,-1.0407272243167434,-0.8214272642195857,-0.5968762193328887,-0.3671487996861753,-0.07980895898264873,0.25691452050253716,0.5980851543285173
mp-1103859,Tl(Mo3S4)2,Trigonal,R-3,True,0.04733204777777544,-0.9142480268888894,15.0,-13.952146025714896,-13.964806325775676,-13.983890401901062,-13.99257236452816,-13.989548486645619,-13.883364416017283,-13.353488199212817,-12.814657777794672,-12.265016635763985,-11.703311340135173,-11.128718488691979,-10.540672098092095,-9.938806432498623,-9.32286782752432,-8.640158187290638,-7.898695982787436,-7.143236254734305
mp-559492,Tl(NiS)2,Tetragonal,I4/mmm,True,0.03690923972222393,-0.5254565796666675,5.0,-2.551498626712071,-2.5190568686562766,-2.4861024161698917,-2.443484810789682,-2.3959281370859915,-2.320577812565845,-2.137138366338336,-1.9491830318651573,-1.756176575876366,-1.5577837563425865,-1.3537954009819924,-1.1440895257114514,-0.9286081318015489,-0.7073326505338207,-0.4125811424674488,-0.0613630293552383,0.2954215830736757
mp-1216802,Tl(V3S4)2,Trigonal,P-3,False,0.0608967724444458,-1.205186654222221,15.0,-17.95258670079727,-17.871792361954274,-17.796078585204796,-17.70886822431393,-17.6089819239343,-17.404959113246573,-16.776242964487594,-16.13752167055423,-15.486857873866018,-14.822954611354987,-14.144920076389674,-13.452138536962188,-12.744213164319632,-12.020890294074754,-11.22948426751542,-10.378019774214678,-9.511245636308907
mp-1216912,Tl(V3S4)4,Triclinic,P1,False,0.0516161374712647,-1.2581253383908022,29.0,-36.51592547632097,-36.42471435544634,-36.34499195853519,-36.24826727131598,-36.12687173534611,-35.79821032059352,-34.621343302213205,-33.42573026353104,-32.2075326441916,-30.964164075352222,-29.69382909110474,-28.395275643164823,-27.067682496698424,-25.710510590750474,-24.270885041387807,-22.75669488354177,-21.212579396555284
mp-1199667,Tl2(ReS2)3,Monoclinic,C2/c,True,0.0,-0.7804455817424256,11.0,-8.684067061118874,-8.671264294493934,-8.658266387601616,-8.628943368253335,-8.590154616243813,-8.473558797043978,-8.038924799915382,-7.597460579951697,-7.147879176894744,-6.689366776992635,-6.221419463856856,-5.743722647702747,-5.256128831859341,-4.758567315946657,-4.145993769350795,-3.4347056365159716,-2.7144469475277795
mp-29898,Tl2Au4S3,Orthorhombic,Pmmn,True,0.0,-0.40849955546296474,9.0,-3.634495932310614,-3.606001906211675,-3.580959803418497,-3.543044520830226,-3.4990870263650473,-3.413524445946126,-3.165425698928436,-2.9098734839178917,-2.645807578416795,-2.3724982058902686,-2.064560512965226,-1.7329705545551892,-1.3919408734042698,-1.0416072949253117,-0.5770828888337665,-0.01480500087326675,0.5553700797682701
mp-1192902,Tl2Cu2S3,Orthorhombic,Pnma,True,0.03835139876984073,-0.43186520309523957,7.0,-2.8856066525863446,-2.8328970130334046,-2.7798935013657338,-2.7131178071852906,-2.64091158587558,-2.528542452624777,-2.2555722884250313,-1.9774097972486908,-1.6932826437599973,-1.4026544320623238,-1.0966808362743699,-0.7720022928581294,-0.4402887566213849,-0.10162295292121826,0.3489417803942594,0.8950251180833444,1.4468362596922137
mp-17488,Tl2Fe3S4,Orthorhombic,Ibam,True,0.0830782846913598,-0.5898270357407414,9.0,-5.183853005357639,-5.126883516185506,-5.068951792678047,-4.993990802937191,-4.908523695012745,-4.765357807814354,-4.4026075081758655,-4.0290964907129485,-3.6365074463341305,-3.234739711838202,-2.823436676584123,-2.4023990832607094,-1.9715351786075104,-1.5308310238253249,-0.9752582158618051,-0.2951661075083116,0.3949027913911607
mp-12307,Tl2Ge2S5,Monoclinic,C2/c,True,0.0,-0.6811094818518492,9.0,-6.1347716620966875,-6.105589407412285,-6.075481193461219,-6.030163685293134,-5.977479407026653,-5.860548181377194,-5.47920174057219,-5.092744164779466,-4.700069628557859,-4.2438602846879245,-3.7739647357741966,-3.2967707587595196,-2.8121933371819186,-2.320224232610114,-1.7158448880818327,-1.015384860565245,-0.3085936869033574
mp-7277,Tl2GeS3,Triclinic,P-1,True,0.0,-0.6630120181944452,6.0,-3.9052242351400777,-3.868437949413109,-3.8295957919282215,-3.776690524443306,-3.718833656101997,-3.6217277389051015,-3.3651894261076314,-3.104773841476609,-2.8398142453275206,-2.541590888552781,-2.2350030986630474,-1.923239624571485,-1.6062684902311535,-1.2841054501804638,-0.8517377012651792,-0.32548596556005904,0.2049186480420051
mp-1188364,Tl2Hg3S4,Monoclinic,C2/c,True,0.0,-0.42452590824075087,9.0,-3.4624516447518467,-3.345937675358643,-3.2297860298515966,-2.897140952696841,-2.470971671645689,-1.9942922934991696,-1.3064515738562257,-0.6146066270350641,0.0822996601704169,0.7849333238173006,1.493719378961833,2.208903722289186,2.9306216371422042,3.6589274831109044,4.498874537580408,5.434172627942814,6.375100719194776
mp-1200344,Tl2Mo9S11,Trigonal,R-3c,True,0.012516289583333062,-0.8889650304166655,22.0,-19.911407464237385,-19.935806466110805,-19.969707916889277,-19.98594592826652,-19.985459034926556,-19.841965148212346,-19.114429936992643,-18.372946152414514,-17.61486628739374,-16.83841295021451,-16.042430616748796,-15.22613205177095,-14.389016530478209,-13.530743139232952,-12.54603069983581,-11.450995892127203,-10.33520450856831
mp-554212,Tl2Ni3S2,Trigonal,R-3m,True,0.0019659596031731397,-0.4183272602380989,7.0,-2.747587371318984,-2.688441934913987,-2.6283942416712476,-2.5517915499339745,-2.4686141117587326,-2.3554794931032483,-2.1317080866454248,-1.9006455813811876,-1.661626394319704,-1.4142504201794646,-1.1582834797340986,-0.8936043366467104,-0.6201738717757657,-0.3380038149868252,0.08066277726289961,0.6062227989885756,1.1398928602146992
mp-1077950,Tl2Pd3S2,Trigonal,R-3m,True,0.0,-0.4901558430952408,7.0,-3.3192008419196495,-3.278221078914937,-3.238649262731081,-3.186073259059585,-3.1283714388355928,-3.041499088906093,-2.8446739953261932,-2.6412356285086203,-2.430549498378541,-2.21224659257044,-1.986133152648746,-1.7521190351925569,-1.510183776809944,-1.2603266702000617,-0.8975072562477546,-0.41561220833175305,0.08050885566136401
mp-28805,Tl2Pt5S6,Monoclinic,P2_1/c,True,0.0,-0.6600575843589743,13.0,-8.666442815555536,-8.64994418209473,-8.636463478492944,-8.607051923483189,-8.56709655732459,-8.447416228348274,-8.00731692066407,-7.557719968359489,-7.0971862964142645,-6.624806134908383,-6.140044341925581,-5.6425808568442335,-5.132264261109526,-4.609055189356038,-3.967931731338016,-3.2252317691130763,-2.4707337285848965
mp-1077922,Tl2Rh3S2,Trigonal,R-3m,True,0.0,-0.4519743102380979,7.0,-3.1112925777880465,-3.086005377148762,-3.0622194020783233,-3.0252364634410607,-2.9827421560929386,-2.910564285925349,-2.7278304695370146,-2.537827319383462,-2.339883033890664,-2.133616163526707,-1.9188236219812165,-1.6954308122912938,-1.463448363981005,-1.2229315369982974,-0.8689362602676134,-0.4178356040169273,0.04056978520987364
mp-8190,Tl2SiS3,Triclinic,P-1,True,0.0,-0.8450430581944429,6.0,-4.964727641833504,-4.920751370171976,-4.875060212397967,-4.815495611411514,-4.751096526218923,-4.647532343043942,-4.384609350836241,-4.117900292681916,-3.8467560482155143,-3.5707752597892686,-3.2897196687605366,-3.003456264183452,-2.7119271592477343,-2.4104945353975324,-1.9725950894008815,-1.440835494516655,-0.9049447867766851
mp-28011,Tl2Sn2S3,Monoclinic,C2/c,True,0.0,-0.6171187241666668,7.0,-4.1969829819541,-4.145417673838717,-4.064571604454851,-3.9676524767744112,-3.8648426468079426,-3.7216190887113387,-3.4177012209178006,-3.108640774813262,-2.793806369614485,-2.472825365449099,-2.145509704249454,-1.8117728701015228,-1.4716083914255655,-1.1250637549405447,-0.6671529141342916,-0.11423339277679291,0.44393717445520586
mp-7499,Tl2Sn2S5,Monoclinic,C2/c,True,0.00045291902777666593,-0.6670838215740775,9.0,-5.902288531011983,-5.843322521299338,-5.754014580925513,-5.646763242587969,-5.531272459643038,-5.350894215245587,-4.905646799119031,-4.455027067510375,-3.998092951002713,-3.534258736905281,-3.063189061402964,-2.5846945132746377,-2.0987004403636664,-1.605206895683036,-0.9991994679926037,-0.29701807856587337,0.41158773575414287
mp-542623,Tl2SnS3,Monoclinic,C2/m,True,0.023536888541665135,-0.6233643506944464,6.0,-3.6454893859778075,-3.6016305352692424,-3.541007827105501,-3.4649549570683815,-3.3835141489203737,-3.262504034882009,-2.9818345469562875,-2.6971571969498225,-2.407887123190233,-2.113670643834272,-1.8143151031827642,-1.5097206560669107,-1.199860508592419,-0.8847545610198395,-0.4593920830560041,0.059901021071659954,0.5833936424702664
mp-17172,Tl2TeS3,Orthorhombic,Pnma,True,0.02641215837499722,-0.4586961730555572,6.0,-2.6913901461725875,-2.6569322115761707,-2.620094002464931,-2.5688558434303577,-2.4924380688220777,-2.3695151951949764,-2.086224029195777,-1.7984440973484128,-1.5056724159926231,-1.2075998697980905,-0.8459574181353489,-0.4943670378804583,-0.13794314879930347,0.22332647819411022,0.6944769295104809,1.2592102845467785,1.8278171994513137
mp-541140,Tl3(FeS2)2,Orthorhombic,Pnma,True,0.07808669842592764,-0.5677705019444461,9.0,-4.9488106823843,-4.882487053806916,-4.81260182311683,-4.720132058535163,-4.617957336572102,-4.459322369822323,-4.082879432566427,-3.697002408568652,-3.2958790413363737,-2.8859542447010984,-2.4669118288125578,-2.0385846657061144,-1.6009120950373124,-1.1539060887702721,-0.5400347458996109,0.23354685968676847,1.0157185117656589
mp-559356,Tl3AsS3,Orthorhombic,Pbca,True,0.0,-0.5279428812500052,7.0,-3.5215803886402615,-3.458921644267465,-3.3926690329620897,-3.306138564686771,-3.213754705624623,-3.0809021876140745,-2.787243425409004,-2.4882845474518795,-2.183355825029735,-1.872062853229,-1.5542258654262877,-1.1622639165216917,-0.758626875299262,-0.34916313017251177,0.2236681666351572,0.9354180781807333,1.6515235596200846
mp-5704,Tl3AsS4,Orthorhombic,Pnma,True,0.0,-0.5415249046875017,8.0,-4.189295195918588,-4.128042257372014,-4.062664867196514,-3.976074450217501,-3.8824562712909767,-3.7361325667548613,-3.376915187008139,-3.012282822923809,-2.6414104014720756,-2.2637969813301755,-1.879189143000982,-1.4199544937310442,-0.9485088120159606,-0.470676769416265,0.17109666420864045,0.9523713531639757,1.73858830152248
mp-17823,Tl3B3S10,Triclinic,P-1,True,0.0,-0.6721069507812505,16.0,-10.611180334360656,-10.525093074479233,-10.440273416496197,-10.3326680635111,-10.212584633902576,-9.966580229252518,-9.19451796581206,-8.415195200452892,-7.62653374130517,-6.827177246480996,-6.016270636326976,-5.1932674753387715,-4.357861734354309,-3.5098978127209897,-2.4917533425450635,-1.3278353610345839,-0.15271141178787673
mp-29337,Tl3BS3,Monoclinic,P2_1/m,True,0.0,-0.6321695880952376,7.0,-4.184915682456167,-4.109757350463772,-4.032543214450132,-3.936063814097527,-3.834454451470295,-3.692936102382619,-3.391065465673976,-3.0842844110937797,-2.771879679846668,-2.453419555519872,-2.128667267810675,-1.7974989893058648,-1.4598792283707631,-1.115827488099928,-0.6078148396678955,0.039699415676999195,0.6921413505700187
mp-8393,Tl3SbS3,Trigonal,R3m,True,0.0,-0.5490391353571431,7.0,-3.700813315922362,-3.645815307534752,-3.587109424855907,-3.5080147871400618,-3.422912330487933,-3.297119418753292,-2.9883385765516497,-2.673069869206854,-2.3516312863041264,-2.0236854266092177,-1.6890701428178119,-1.3477237933486776,-0.9996627080938154,-0.6449468109385741,-0.1260855209872105,0.5095634825257118,1.2152062380332502
mp-8378,Tl3SbS4,Triclinic,P-1,True,0.0,-0.5439285518750032,8.0,-4.235879545851398,-4.181236349265177,-4.122354693691372,-4.042149113246998,-3.954761342705659,-3.814446250420616,-3.439055796652486,-3.0570626091556523,-2.668629333198501,-2.273312031137589,-1.8708749027948706,-1.461204858935563,-1.0442841391632136,-0.62014895051019,-0.03129452971675839,0.6749302452307582,1.45173546168229
mp-5513,Tl3VS4,Cubic,I-43m,True,0.0,-0.8552032675000003,8.0,-6.658632928074708,-6.587079156236358,-6.511195719523499,-6.413928244969141,-6.309486871762086,-6.152204200545585,-5.781893118149153,-5.406026096862597,-5.023763553628648,-4.63458381851388,-4.238175431911305,-3.8343569001709668,-3.4230493134949356,-3.004237057388922,-2.420361474205464,-1.6958575174866688,-0.965271227778139
mp-23408,Tl4Bi2S5,Orthorhombic,Pnma,True,0.0,-0.6401976503030317,11.0,-6.884290726359192,-6.812395403002484,-6.71124446365678,-6.562461991167962,-6.404044847840982,-6.178831675308872,-5.686561306347712,-5.1865911493340775,-4.6779130438232155,-4.159936526843172,-3.63233335698081,-3.094938708663509,-2.5477227200858543,-1.9907364714554987,-1.2139664659669052,-0.250060876156752,0.8225494253749943
mp-17207,Tl4GeS4,Monoclinic,Cc,True,0.0,-0.6327044370370393,9.0,-5.480903693742546,-5.402200518225794,-5.3182556867019555,-5.207330819395048,-5.088917919617355,-4.917004820655886,-4.5312097500482285,-4.138893998927639,-3.7391631736817352,-3.3031758742072075,-2.855781480431487,-2.400158462151232,-1.9362959076875974,-1.464249319087088,-0.7739988438492738,0.10182290876975486,0.9837721489343068
mp-8479,Tl4SiS4,Monoclinic,Cc,True,0.0,-0.7544712764814846,9.0,-6.505651117751263,-6.410140131878773,-6.3097284756446275,-6.182526450414997,-6.047953509364842,-5.859964320004102,-5.458166745565032,-5.04993969649996,-4.634406398515559,-4.2110438429683406,-3.7795638236324436,-3.3398230504454833,-2.8917847009652764,-2.430850704144074,-1.7254507074037075,-0.834503271184392,0.06254988753924451
mp-29303,Tl4Sn5S12,Triclinic,P-1,True,0.012483209404762441,-0.660949388730159,21.0,-13.714460039985235,-13.592476798537666,-13.396231622561718,-13.161586414568003,-12.907610810863012,-12.498542128690818,-11.454525305218665,-10.398399397380956,-9.327923058599353,-8.241692832644809,-7.138895283771153,-6.019062023483841,-4.881995889207214,-3.727677139719674,-2.3460732715940082,-0.7698781444232878,0.8213907401563815
mp-9622,Tl4SnS3,Tetragonal,P4/ncc,True,0.03381508041666503,-0.52012197291667,8.0,-3.9299991954431674,-3.851673707716406,-3.7539291629816454,-3.62877270042404,-3.496866239301835,-3.323376188622273,-2.987864619025828,-2.6458166472548097,-2.2965751020258036,-1.939771186909029,-1.5752359514958307,-1.2029107191544295,-0.8228238506470973,-0.43505871059545775,0.17038829827585822,0.9608705833098643,1.7569403057539894
mp-5818,Tl4SnS4,Monoclinic,P2_1/c,True,0.0,-0.6262657378703724,9.0,-5.426807417305767,-5.347456891863795,-5.248156724717474,-5.12050946991474,-4.984937845386722,-4.795545764640158,-4.392044733960622,-3.9818924325209704,-3.564276344720936,-3.1387211377215607,-2.7049842082404467,-2.2629554319922693,-1.812629079450847,-1.3540647983848295,-0.6772448091548355,0.18519309683036056,1.0538051297350748
mp-4762,TlAg3S2,Orthorhombic,Pbcn,True,0.016858450185181173,-0.2843251534722224,6.0,-1.6489113317369313,-1.6227434384323325,-1.5998521084633528,-1.5703796605138303,-1.53680133902304,-1.4752928265302172,-1.305127686690951,-1.1296290901189252,-0.9481023135052293,-0.7412223323108647,-0.517713420929419,-0.28726533879383176,-0.04996996330588832,0.194043461852619,0.4971603884341462,0.8511027953019124,1.2108848707594735
mp-1095594,TlAgS,Orthorhombic,Pnma,True,0.02375327620370138,-0.34530104416666835,3.0,-0.9668489797798451,-0.9433595101233962,-0.9199003001624304,-0.8899417422802698,-0.8577690826795568,-0.8115359759687695,-0.710934134793964,-0.607673338481777,-0.5014461279532849,-0.38577027803024544,-0.26353723098277904,-0.1379734802496979,-0.009116673087625315,0.12297686010680486,0.31077128636647977,0.5460699695853588,0.7839734122170281
mp-28442,TlAs5S8,Monoclinic,P2_1/c,True,0.0064751426785711885,-0.44228019255952333,14.0,-6.3630294145064745,-6.357425686239096,-6.356153113053028,-6.343909735498512,-6.320154425310582,-6.193813872677999,-5.644589131392079,-5.087367672101557,-4.520394428736676,-3.9425489336996478,-3.3532819869561266,-2.414760816822124,-1.439087316641242,-0.4552251959243634,0.5894804387881329,1.686968113050554,2.792411369241787
mp-4988,TlAsS2,Monoclinic,P2_1/c,True,0.0,-0.5108456258333338,4.0,-2.016692431467615,-1.99763591255456,-1.9781713109580985,-1.9513457781747325,-1.921203286218927,-1.8648432856429142,-1.7021266169179894,-1.5367532411203917,-1.3682810834650239,-1.1964373900340353,-1.0210923417872717,-0.7746752727413275,-0.5196149873121634,-0.26172012640519426,0.05154310840998466,0.4120376673716972,0.774913186578603
mp-8946,TlBS2,Trigonal,R-3m,True,0.0,-0.7124979106249985,4.0,-2.7903339782863354,-2.7670988871918767,-2.7449937763253462,-2.7165403269028894,-2.6854933468201962,-2.628788530605249,-2.4661810028149493,-2.301306465832476,-2.133679314790335,-1.962989484271483,-1.789050151556431,-1.6117477683484651,-1.4310257786448257,-1.246863938031968,-1.0067403670306188,-0.7188024797077853,-0.42791152248540715
mp-28809,TlBS3,Monoclinic,P2_1/c,True,0.006876568249995607,-0.6733085745000004,5.0,-3.3267718486025677,-3.302135288781301,-3.278098124491615,-3.2467774518124304,-3.2116888773123318,-3.138705600018783,-2.9077321801337987,-2.674376882471094,-2.4379987578463336,-2.198181204433282,-1.954663746638718,-1.7072813885123814,-1.4559434837630594,-1.200606071124219,-0.8887330887526037,-0.5284631494669831,-0.16465345077241444