,pretty_formula,crystal_system,spacegroup,experimentally_observed,"energy_above_hull, eV/atom",Ef,total_atoms,Gf_400,Gf_500,Gf_600,Gf_700,Gf_800,Gf_900,Gf_1000,Gf_1100,Gf_1200,Gf_1300,Gf_1400,Gf_1500,Gf_1600,Gf_1700,Gf_1800,Gf_1900,Gf_2000
mp-20493,Mg(InS2)2,Cubic,Fd-3m,True,0.0,-1.0997447451190472,7.0,-7.487646942802266,-7.3976508186048555,-7.305059946508916,-7.2089565177487795,-7.106311508327739,-6.9517338818300916,-6.577776139551666,-6.197034112997584,-5.810990739672421,-5.419229331406141,-4.990265255534014,-4.49039796287259,-3.985349851614634,-3.475070465793708,-2.9595605444083564,-2.4388538303299736,-1.9129960859235524
mp-2226962,Mg(Mn2S3)2,Trigonal,R-3,False,0.06836887045454532,-0.9130699028840119,11.0,-9.80303793547241,-9.702861926719672,-9.605553429925283,-9.501134724546002,-9.384137885614148,-9.185890957260545,-8.65662974070198,-8.106901984782438,-7.5454399032085995,-6.971733356374831,-6.351661803546867,-5.644214173621691,-4.896147670140817,-4.128730660973213,-3.3485123274498356,-2.5557896994426983,-1.7508773620459337
mp-1410838,Mg(MnS2)2,Tetragonal,I4_1/amd,False,0.05602024857142762,-1.02832854226601,7.0,-7.104667382752017,-7.055043760690893,-7.0071866904151285,-6.954944388966177,-6.894931300243894,-6.781501425921403,-6.4460692665690225,-6.098326575337733,-5.743578645538708,-5.381479266278182,-4.979291796807253,-4.499696472520391,-3.9989406436754464,-3.487630433048796,-2.9690251172355016,-2.4432662278824093,-1.910509388991036
mp-1443978,Mg(MnS2)4,Trigonal,R-3m,False,0.0013062865384609879,-0.992534162824933,13.0,-12.716830653698608,-12.617562770640685,-12.520101230148422,-12.413659141404125,-12.29229017678589,-12.06519738942353,-11.402915451824025,-10.719937237692454,-10.024684272101815,-9.31643334262809,-8.560916602789533,-7.717020086176052,-6.831432815752251,-5.925375725681125,-5.005369632565646,-4.071693963781364,-3.124655206588656
mp-676282,Mg(Mo3S4)2,Triclinic,P1,False,0.03390337883333405,-1.0290129796666663,15.0,-15.34797372177458,-15.279729187464373,-15.220962790000241,-15.15799524291822,-15.083388186880685,-14.905518331474564,-14.296321982584436,-13.675510911901801,-13.043453819782656,-12.398935621171155,-11.709915626189748,-10.942281704426634,-10.161446220267738,-9.367115088535027,-8.559084383428207,-7.737215867640511,-6.901410977704344
mp-14307,Mg(ScS2)2,Cubic,Fd-3m,True,0.0,-2.0642092685714277,7.0,-14.371915400123159,-14.327784242727548,-14.286841619808907,-14.243031100017742,-14.192985783003518,-14.091018213218018,-13.76943422149016,-13.440624426079477,-13.10588935271671,-12.764638192902229,-12.38522048508598,-11.933786434087732,-11.475905046381328,-11.006441137804238,-10.529487275100252,-10.031398390963012,-9.524572426852718
mp-1045420,Mg(TiS2)2,Orthorhombic,Imma,False,0.07720002500000067,-1.6158567459523812,7.0,-11.18126643710937,-11.123809599084401,-11.069093557546037,-11.011144795587454,-10.94673529454956,-10.830287460520672,-10.49412163435716,-10.150547592736984,-9.798237473558558,-9.434994000995733,-9.03437166763641,-8.562560062660616,-8.085161358319255,-7.6020090184261715,-7.11298355603805,-6.617992269501233,-6.107558197441271
mp-2240000,Mg(TiS2)3,Trigonal,P3m1,False,0.09709962600000566,-1.5802853389999996,10.0,-15.69763961530126,-15.633645718930948,-15.572899636788017,-15.507199431061924,-15.432115466053226,-15.279528875786184,-14.801773007228526,-14.314867209098743,-13.815725157469785,-13.301035543284197,-12.746732822931842,-12.118864161583252,-11.48292997883923,-10.83868481472567,-10.185950570534029,-9.524586375824732,-8.840374408164784
mp-1398703,Mg(TiS2)4,Trigonal,R-3m,False,0.008348272307694415,-1.6543058060256404,13.0,-21.324548902813426,-21.228835495427838,-21.13687692001041,-21.03824281784687,-20.927301936197445,-20.713394137022313,-20.06886577340058,-19.41344576609126,-18.74228932934184,-18.050971120863558,-17.317805560848235,-16.508697390456916,-15.689045276640307,-14.858524835636342,-14.016899356971244,-13.163979801419536,-12.280807485489671
mp-36982,Mg(TiS2)8,Orthorhombic,Pnnm,False,0.01675467519999785,-1.6191243300666667,25.0,-40.1568946135623,-39.97556919729065,-39.80002668395026,-39.61092303121201,-39.39782051817469,-38.97989391854226,-37.70954160983927,-36.421330800986844,-35.103382858930615,-33.74681630845659,-32.33946542496446,-30.84666525357726,-29.33340745064534,-27.79905193725479,-26.24312755587094,-24.66525259212463,-23.027504918290134
mp-1246770,Mg(VS2)4,Cubic,F-43m,False,0.04867791730768101,-1.2646611026923078,13.0,-16.264359585877948,-16.170752550907753,-16.081729492332308,-15.986752262661893,-15.880032071715675,-15.670817575566911,-15.03154633318163,-14.382216737257487,-13.723336129315644,-13.05379159905158,-12.341578864268156,-11.552610957570657,-10.752319711686884,-9.940442928686739,-9.116814375372726,-8.281323781239877,-7.433892081390222
mp-1185704,Mg16Al12S,Trigonal,R3m,False,0.0955511713793098,-0.028012395258620624,29.0,-0.4455658753784544,-0.35812794756029387,-0.31931715900330193,-0.286063027124845,-0.2347338904092826,-0.13998299575881212,0.26014197430257013,0.788720173040165,1.3632461695153992,1.983250417143676,3.1477896141490866,5.392927955781772,7.6653533919092425,9.964748373650824,12.290705409440882,14.642671319662378,17.020118863113062
mp-1206963,Mg2Ga2S5,Trigonal,P-3m1,False,0.0053173592592630214,-1.2826812008333326,9.0,-11.341290539864783,-11.229737834250443,-11.122563620838573,-11.012072117148126,-10.89403765016863,-10.711397630841649,-10.249052973132724,-9.77640673632559,-9.29693204507496,-8.810090862494597,-8.253086302252942,-7.558615930379219,-6.858142639412851,-6.151566985035624,-5.438852531858586,-4.72000712881238,-3.9950689586435253
mp-17441,Mg2GeS4,Orthorhombic,Pnma,True,0.0,-1.2603745989285713,7.0,-8.759339422961522,-8.71958491361223,-8.683352669371608,-8.644524073058182,-8.599702167835934,-8.503189133851329,-8.179887578634316,-7.84727284864053,-7.50897329257837,-7.136239320790517,-6.691462032591296,-6.110686435101355,-5.525402662430958,-4.935521910683935,-4.341005534498571,-3.7418520381081226,-3.1380812731142598
mp-1193963,Mg2SiS4,Orthorhombic,Pnma,True,0.0,-1.4068821807142855,7.0,-9.776163234968237,-9.735207132887707,-9.698114281561285,-9.658614744949638,-9.61323901607943,-9.516256109320054,-9.192558267896134,-8.859638457582365,-8.521142646406208,-8.176639636170165,-7.763382940035272,-7.214095805263124,-6.660242455200661,-6.0970805128574455,-5.503020832794029,-4.904347870427799,-4.3010794044993474
mp-1193355,Mg2SnS4,Orthorhombic,Pnma,True,0.011135338571428122,-1.2420699507142834,7.0,-8.593471713716085,-8.542673057489413,-8.48068868067415,-8.414740899912733,-8.342363472988001,-8.217974660266139,-7.86657034802509,-7.50572227076008,-7.13914065519163,-6.766441978926764,-6.32492535806999,-5.747347205659965,-5.165202837959624,-4.5784075967949285,-3.986924909665227,-3.3907584629564482,-2.7899281082702565
mp-1222141,Mg2TeS,Trigonal,R3m,False,0.07412422625000081,-1.2924123997916666,4.0,-5.16041321686747,-5.152602796409683,-5.149581992392705,-5.14643350588033,-5.120586809223861,-5.072503533625374,-4.952958133071216,-4.82383266948232,-4.6893852805418454,-4.549596619597322,-4.283910376444163,-3.898959129126534,-3.5114816784328884,-3.121432387401615,-2.7287928745064924,-2.333565246253765,-1.9357597359545302
mp-1222100,Mg4Te3S,Orthorhombic,Pmm2,False,0.03416360187500089,-1.1848896128125,8.0,-9.451568536572802,-9.44030676858512,-9.441021497302447,-9.4428033463894,-9.380068704710888,-9.277317556441288,-9.081985734982116,-8.865993036041331,-8.638046438203368,-8.398239393056276,-7.847461145765843,-7.072763451373605,-6.2928195377196126,-5.507557304845518,-4.716954499726334,-3.921027772540958,-3.1198063995711074
mp-1222003,MgCdS2,Tetragonal,P4/mmm,False,0.09663548874999961,-1.166278629999999,4.0,-4.543710880174819,-4.500839419549146,-4.459484527740299,-4.406284069827202,-4.349438104262629,-4.2660004786553465,-4.068393571539564,-3.8056166133079907,-3.5006736606985673,-3.1927364330276244,-2.850402892775451,-2.440015417436901,-2.0272955512320507,-1.6121774468038907,-1.1946313218903342,-0.7746427001090943,-0.3522171508338676
mp-677217,MgMo3S4,Triclinic,P-1,False,0.0465221390624988,-1.0449647131250002,8.0,-8.299927437103358,-8.261914464494433,-8.229503940811073,-8.1950978852716,-8.154564725918005,-8.061845292651974,-7.749054902732623,-7.428494758304139,-7.1014437403192066,-6.767309701568132,-6.394469579604115,-5.949104527820772,-5.4968235671866275,-5.0374753108075225,-4.5709566640768955,-4.097200326300436,-3.6161593961156733
mp-1120718,MgZn3S4,Cubic,P-43m,False,0.013665417499998611,-1.199073151875,8.0,-9.39645012945413,-9.32285071923603,-9.253880549672779,-9.17939823945412,-9.066744466194514,-8.900355991805805,-8.512683937039885,-8.116312449576512,-7.656581145197613,-6.94387160317949,-6.194697777191831,-5.3752377113366485,-4.5511097544572685,-3.7221873939923356,-2.8884079561260734,-2.049744560954977,-1.2062062743653748
mp-1221929,MgZnS2,Tetragonal,P-4m2,False,0.020455584999999665,-1.3418712774999992,4.0,-5.2947930739949625,-5.264388419335466,-5.236324295766725,-5.205939402694241,-5.161637975385838,-5.090527237622745,-4.905053405841434,-4.713986659286772,-4.500462681374416,-4.201224834681311,-3.8675917118375054,-3.4659046539073275,-3.0618841686803133,-2.6554664816605245,-2.2466197377248047,-1.835331533351935,-1.4216053650545426
mp-1104783,Mn(AlS2)2,Cubic,Fd-3m,False,0.0,-1.235150705418718,7.0,-8.56053032530632,-8.514090568949268,-8.470197796569106,-8.422658767985961,-8.368015376962358,-8.260506581382232,-7.923522836627535,-7.571192854962053,-7.2127033620439684,-6.847666689758174,-6.475220581975149,-6.0934310853553555,-5.6975267389424715,-5.29284756197346,-4.881072274480184,-4.462336189526296,-4.036782493946916
mp-15974,Mn(CrS2)2,Cubic,Fd-3m,True,0.0,-0.9841728489901475,7.0,-6.898696377480968,-6.8765244888926,-6.85720014913576,-6.83452389944738,-6.805058362200647,-6.723106753972559,-6.427887897248762,-6.125301245859088,-5.816275246972834,-5.500154833397321,-5.175822787091843,-4.841100557111024,-4.490978303475893,-4.1305680307060975,-3.7613266626993855,-3.3831718621074334,-2.9960291653533755
mp-20025,Mn(GaS2)2,Tetragonal,I-4,True,0.0,-0.925073553676108,7.0,-6.393719253368822,-6.317668136762279,-6.244153639827292,-6.167409531763685,-6.084296926938222,-5.949355348089483,-5.602008830948691,-5.248362042591264,-4.8895341334046165,-4.525056593692048,-4.1539987629088415,-3.774366574744535,-3.3813346738550774,-2.9801995493950333,-2.5726026098970696,-2.1586397840645724,-1.7384273115388034
mp-22168,Mn(InS2)2,Cubic,Fd-3m,True,0.0,-0.8876582551046782,7.0,-6.06497371004503,-5.989636413801895,-5.91105867343802,-5.828330971632001,-5.738447085858869,-5.596060546215845,-5.2406907400432186,-4.878498301665207,-4.510645911551613,-4.136710662949202,-3.755795061090323,-3.3659299139973076,-2.962320959242108,-2.550281268867815,-2.1314729800177616,-1.7060127500059998,-1.2740251099180586
mp-10199,Mn(NbS2)3,Hexagonal,P6_322,True,0.0,-1.3647385397931018,10.0,-13.568626616223154,-13.511857962115174,-13.458941361235457,-13.401540139804137,-13.335104436179911,-13.191516420817582,-12.730185151935329,-12.2609559615651,-11.784501659323933,-11.300054336682951,-10.806458746969358,-10.30156492626627,-9.780434365843655,-9.248269084610143,-8.70663944216676,-8.1555869798478,-7.595166560093542
mp-3669,Mn(NbS2)4,Hexagonal,P6_3/mmc,True,0.0,-1.3748639286870026,13.0,-17.777985924237363,-17.70490793937167,-17.63660567054938,-17.562466347282378,-17.476690815084492,-17.288605462318984,-16.677668628384062,-16.05752227751701,-15.428440554369,-14.789391390217109,-14.139040555203938,-13.475119499305357,-12.792613871904585,-12.09667475174668,-11.388842906722385,-10.669144875157116,-9.937625963816906
mp-10412,Mn(SbS2)2,Monoclinic,C2/m,True,0.01331609428571312,-0.5171246447475377,7.0,-3.620394364838738,-3.5951796514969145,-3.5726570224066343,-3.5467451718856147,-3.514023305195581,-3.4287573274143286,-3.0863582152483664,-2.734835595093215,-2.3772218681006576,-2.0131252204334498,-1.641679250239937,-1.260945858458454,-0.8661494384105399,-0.46262171788889717,-0.052047635508586154,0.3197153626927083,0.8281379158631719
mp-1045487,Mn2AlS4,Orthorhombic,Imma,False,0.08533486428571369,-0.951535282980295,7.0,-6.541603434264256,-6.485768375931779,-6.43176723736932,-6.373431652729807,-6.307351191580292,-6.187844616955769,-5.8457978498546055,-5.489903524393728,-5.127247521540434,-4.757459792498678,-4.3790344577777995,-3.988210337008153,-3.5754670445300913,-3.151459415355051,-2.719487146868886,-2.2797301186481835,-1.8323771204715198
mp-1078896,Mn2Ga2S5,Trigonal,P-3m1,True,0.038380503888895134,-0.9344273281142281,9.0,-8.302380190903293,-8.213022668903438,-8.126752246661642,-8.035889724585369,-7.936255032607624,-7.770874714695831,-7.338583456904445,-6.895913924155389,-6.445698727033836,-5.98738739148715,-5.5193573069779305,-5.037768753946967,-4.533051303692046,-4.015832567914025,-3.48939890751352,-2.953924000306504,-2.4096035664805378
mp-621925,Mn2GeS4,Orthorhombic,Pnma,True,0.015029935357140367,-0.7463249654802949,7.0,-5.227982613453502,-5.203327317498566,-5.18090289420788,-5.1546073092884965,-5.121089208847867,-5.03473990605831,-4.734395780538707,-4.424661784382867,-4.108525752229649,-3.7572256572553346,-3.3943268745684163,-3.019337125701103,-2.6227132235220196,-2.215093420154064,-1.7997618665251007,-1.3768828957537025,-0.9466338968826022
mp-5056,Mn2SiS4,Orthorhombic,Pnma,True,0.0,-0.9828901728879303,7.0,-6.8623348112096085,-6.83325917412242,-6.806755395344916,-6.7765701217263,-6.739279449236694,-6.649241525271351,-6.345282365143825,-6.032024540266989,-5.712473504598763,-5.386185622775242,-5.051588683751636,-4.704868649201102,-4.336456421228938,-3.952336678863775,-3.534243072955748,-3.1086258878075537,-2.6756604396008505
mp-1222131,Mn2SnS4,Monoclinic,P2/m,False,0.03850800678571353,-0.8157058075307901,7.0,-5.670676983304305,-5.633668452282676,-5.584182808228037,-5.529458950671353,-5.467076240338928,-5.351542070622804,-5.021786099889851,-4.682509668273477,-4.336782488424658,-3.984208600784024,-3.6232613972502414,-3.250160005273532,-2.8553664198751907,-2.4495230389002547,-2.035916086137645,-1.614715076858607,-1.186097400105865
mp-1104162,Mn2ZnS4,Cubic,Fd-3m,True,0.03268171081632687,-0.9102866415614008,7.0,-6.288269555310332,-6.241017455106697,-6.1954800851617575,-6.144686882395707,-6.075784497787222,-5.953349247358803,-5.616354319559718,-5.269535256730973,-4.897265601134363,-4.436093995998514,-3.967160568984127,-3.486640917459038,-2.9849597249453392,-2.472724150649926,-1.953194507598404,-1.4265102545765487,-0.8928290884469572
mp-1221706,Mn4CdS5,Trigonal,R-3m,False,0.09453234949999967,-0.9725953876993543,10.0,-9.622942593244687,-9.563178388897223,-9.50593649740387,-9.432124168910763,-9.3468407100411,-9.192645598603146,-8.767160050145245,-8.264232091418732,-7.711685902720021,-7.1484410917144565,-6.571606908801339,-5.973720128935096,-5.3357504156404705,-4.6789888172088805,-4.010001806626864,-3.3290910692925415,-2.6365793849390613
mp-1410942,Mn4ZnS8,Trigonal,R-3m,False,0.04137919467033058,-0.8350788427804113,13.0,-10.722966168238646,-10.636859606445276,-10.552507565690895,-10.458304375036558,-10.338835913939182,-10.113527549877952,-9.460472643238809,-8.789207856916837,-8.087222964935673,-7.290689608993684,-6.479216711018736,-5.645185666574086,-4.769462831888585,-3.873270177555757,-2.9631295566091183,-2.0393183235631334,-1.1021450385392626
mp-1095372,MnBi4S7,Monoclinic,C2/m,True,0.0,-0.6861374604525908,12.0,-8.059811305224969,-7.9716931400889175,-7.8383573600580565,-7.660063728167264,-7.4702428079180905,-7.189917778660659,-6.538770659140036,-5.878719594490947,-5.210372339733128,-4.532952608549625,-3.845311758454365,-3.145315601519428,-2.4280750833034084,-1.6988644967355313,-0.9593299979574788,-0.20959813242981795,0.7522405978724009
mp-1221703,MnCd2S3,Monoclinic,Cm,False,0.011474354166665535,-0.8859032221533761,6.0,-5.251329692407883,-5.215506608631011,-5.180874789956869,-5.122639518224195,-5.058287697715759,-4.953529135446107,-4.687731710249349,-4.295595490702588,-3.8207746160143987,-3.3416820520069788,-2.8573799494277576,-2.3658614309267545,-1.8622813370606437,-1.3519039065881753,-0.8363474189068132,-0.3156710010247181,0.21003615141597365
mp-1221772,MnCd4S5,Monoclinic,Cm,False,0.002686452499997216,-0.8461910778545245,10.0,-8.30276151218375,-8.230261718748913,-8.15959397543305,-8.043081814705971,-7.91674022956699,-7.723501812816346,-7.262691671799029,-6.553281945822734,-5.680867453106869,-4.802356089651754,-3.9165641069449393,-3.021323403535188,-2.111688733894031,-1.1928574529926763,-0.26642116725810183,0.6675796184059664,1.6090459932615424
mp-1221643,MnCdS2,Trigonal,P3m1,False,0.019745318749999186,-0.938257315026938,4.0,-3.727324493889337,-3.707553530283791,-3.688653439272861,-3.6572703773797373,-3.621627204528923,-3.558822334842117,-3.3882450328979865,-3.1524593319083385,-2.874149031576337,-2.5924796326351167,-2.306636235462042,-2.014692574757758,-1.7118535341215155,-1.4034167942058406,-1.091013970893436,-0.7747135022446727,-0.45459972635377355
mp-1221581,MnHg2S3,Trigonal,P3m1,False,0.06814535958333146,-0.5009980000718409,6.0,-2.7719052455080333,-2.6930464938970124,-2.6171036277960433,-2.4040806024127725,-2.1279953890352115,-1.8138208925687649,-1.3406658842142374,-0.862525659786118,-0.3805607066300052,0.10567386298427106,0.5971200440314153,1.0957805681392774,1.606504740473314,2.1240241765526413,2.6467247427019256,3.174543166190878,3.707394397099492
mp-1221590,MnHg3S4,Trigonal,R3m,False,0.05989007093749921,-0.46073219942888155,8.0,-3.3245075214037083,-3.2071073438030213,-3.093805754424163,-2.7755651704747795,-2.3639331411037707,-1.9021255130548171,-1.2291001179675103,-0.5506359006403354,0.1323831380071887,0.8205833473923541,1.515031744980874,2.2178096015901474,2.9338183382892815,3.657820939630094,4.388218681283561,5.12495552871054,5.86794364730417
mp-1221595,MnHg4S5,Tetragonal,I-4m2,False,0.04095843074999772,-0.4505511860431056,10.0,-4.011387425245287,-3.854069061141411,-3.7020319879711385,-3.2771970849421184,-2.728641479064139,-2.117823958919155,-1.2435514165855484,-0.36338644584579605,0.5220634388066685,1.4136060484762467,2.3124334231196624,3.220705372743872,4.1433754343216265,5.075237961437439,6.014709639108617,6.961741670987141,7.916243437779318
mp-1221534,MnZn3S4,Trigonal,P3m1,False,0.013811044017856489,-0.9928214741094532,8.0,-7.830713008447072,-7.777358452126736,-7.72798744023904,-7.67246688291799,-7.578160259249781,-7.429548897659188,-7.066050804942559,-6.693814931598746,-6.257860636374911,-5.5685632799641445,-4.873023953933222,-4.169152059589946,-3.4520492851568108,-2.7269526460819975,-1.9954608666945273,-1.2576299815335474,-0.5135478252059116
mp-1221533,MnZn4S5,Trigonal,P3m1,False,0.013478963285715295,-0.9842705356402363,10.0,-9.689039053545905,-9.619065621031897,-9.554220087732576,-9.481629323424064,-9.358125028365883,-9.166853300048114,-8.707234597424808,-8.237324855212268,-7.683245398340793,-6.792190695853142,-5.893859519835921,-4.986079623115774,-4.063901614442081,-3.1325311402303306,-2.193551515463213,-1.247011536488749,-0.29300182260063323
mp-1221502,MnZnS2,Trigonal,P3m1,False,0.029512005357142712,-1.0215356087769383,4.0,-4.051259190600161,-4.029482512433463,-4.00940066913531,-3.9863606515554695,-3.9487894964334957,-3.8838389940635496,-3.710922246926562,-3.5323742370864952,-3.3310103909242312,-3.043567852433518,-2.751952352141484,-2.45423658831824,-2.1456244081325053,-1.8314155650978705,-1.5132396022359735,-1.1911670304682502,-0.8652801150278613
mp-1221529,MnZnS4,Monoclinic,P2_1/c,False,0.07048313376487947,-0.6496873419599242,6.0,-3.762766637194799,-3.7031251589020853,-3.6441173460852214,-3.5802810193195276,-3.4995648126903394,-3.3669955254907933,-3.0222851314920387,-2.671713737619103,-2.2977860816191997,-1.8370262346676878,-1.37119262154423,-0.8982550452118438,-0.41334917226234147,0.07827267749665445,0.5750093257714841,1.0768078641371854,1.5835941251943542