,pretty_formula,crystal_system,spacegroup,experimentally_observed,"energy_above_hull, eV/atom",Ef,total_atoms,Gf_400,Gf_500,Gf_600,Gf_700,Gf_800,Gf_900,Gf_1000,Gf_1100,Gf_1200,Gf_1300,Gf_1400,Gf_1500,Gf_1600,Gf_1700,Gf_1800,Gf_1900,Gf_2000
mp-1200242,GdAgS2,Monoclinic,P2_1,True,0.0,-1.5815304941666657,4.0,-6.242041775117688,-6.207231028442573,-6.174762885719283,-6.140902615250035,-6.103617596832892,-6.03989120080036,-5.869481661000944,-5.69600395120716,-5.518937227913379,-5.331628470839108,-5.136827064965539,-4.93765416169021,-4.731459019385653,-4.514697529825295,-4.293735723567694,-4.068657585131222,-3.839556780484897
mp-1101897,GdAsS,Orthorhombic,Pnma,True,0.0,-1.737505793541666,3.0,-5.106700676086301,-5.073043991805269,-5.042352738489865,-5.011278113829937,-4.978024626089587,-4.930646432546101,-4.828772023583008,-4.724061429861349,-4.616169880803003,-4.504866900206254,-4.390027917489483,-4.204079819935105,-4.006831203651895,-3.8005377046280326,-3.59152408675253,-3.3798323506958763,-3.165515126615764
mp-510471,GdCuS2,Monoclinic,P2_1/c,True,0.0,-1.5768299789062503,4.0,-6.181909553085391,-6.137005163400531,-6.094531474262819,-6.050746498960745,-6.003622799445033,-5.930155146784058,-5.750116284853789,-5.567129478871007,-5.380672848899551,-5.190360670093455,-4.991665548660002,-4.78282808461569,-4.567011911624546,-4.3406698121683975,-4.110165743944735,-3.875581618610866,-3.6370090292747417
mp-1103678,GdSbS,Orthorhombic,Pnma,False,0.0,-1.6393191852083326,3.0,-4.822107513328869,-4.790713443460631,-4.762170797199365,-4.733133881526519,-4.701763674623797,-4.656046965783824,-4.533652355251768,-4.40723381057005,-4.277434279458726,-4.144080289395412,-4.007064889117554,-3.8663342694262477,-3.719263487538214,-3.562319714913465,-3.4018779823218788,-3.260889032725486,-3.0516364130047933
mp-510490,GdScS3,Orthorhombic,Pnma,True,0.0,-2.262208397687502,5.0,-11.183077365634734,-11.130796976745785,-11.080232219072716,-11.027244812211062,-10.969555679618043,-10.873072222528723,-10.617692782561907,-10.35898934946265,-10.096268116089426,-9.82903993047867,-9.556952074719705,-9.279757674850138,-8.994677583775529,-8.695579847277067,-8.390845644533421,-8.07369831655945,-7.750386987066358
mp-557655,GdTlS2,Trigonal,R-3m,True,0.033200397152779004,-1.7328956145833345,4.0,-6.821370297994927,-6.7794826947001345,-6.736721651412509,-6.686150902517086,-6.631833075777927,-6.550883168205263,-6.363169275284123,-6.1724027588266095,-5.97814258047816,-5.780096294140795,-5.57807189494236,-5.371953761725074,-5.159074569972939,-4.935873628570848,-4.656174085764044,-4.3281751771462,-3.996783752082715
mp-560370,Ge(PbS2)2,Monoclinic,P2_1/c,True,0.0,-0.7532423432142841,7.0,-5.198200381347373,-5.154395733163055,-5.113541240433058,-5.053163412161322,-4.9863756299064,-4.868016944830975,-4.538140505999955,-4.204334112581831,-3.8658295749629765,-3.4938420648479465,-3.113205548317925,-2.7270511080493396,-2.3352960948182577,-1.9379076719773103,-1.5348907242471679,-1.1262769216381638,-0.7121172086679604
mp-1199965,Ge3Rh2S3,Trigonal,R-3,False,0.0,-0.7265977387499998,8.0,-5.871407628457224,-5.870428304714322,-5.877908868877137,-5.88519314458955,-5.8875546487674715,-5.849502693460067,-5.6500852797633225,-5.444303511360525,-5.2311136283793545,-4.924938770960489,-4.60079473243782,-4.268424359732451,-3.927786572760928,-3.578906696035018,-3.2218614556456657,-2.8567504162144246,-2.4837023513542036
mp-624190,GePbS3,Monoclinic,P2_1/c,True,0.0,-0.7319933799999994,5.0,-3.655347945612368,-3.635700626156582,-3.6180933406735853,-3.5901512953112196,-3.5577966883362633,-3.4871576806873597,-3.2582683863831745,-3.02679718320835,-2.792140433477753,-2.5256066739877294,-2.2520875253258126,-1.9747480428450528,-1.693520381725965,-1.4083761271600235,-1.1193148446035437,-0.8263567865084003,-0.5295366391084748
mp-541785,GePdS3,Monoclinic,C2/m,True,0.0,-0.6506511154999999,5.0,-3.3001293349318104,-3.293715353041188,-3.289608804200928,-3.2837035373530963,-3.2737370588434422,-3.2256416442398277,-3.019337400202261,-2.8103994257673923,-2.5981494602516966,-2.3538359274805893,-2.1023110636813422,-1.846712977013139,-1.586952057615302,-1.3229750163465006,-1.0547555078997242,-0.7748214284020278,-0.48823415217352384
mp-1101755,GePtS,Orthorhombic,Pca2_1,True,0.0,-0.7507628749999995,3.0,-2.2575015731929184,-2.253516071074425,-2.2529623936615195,-2.2525300865737794,-2.2504298766585054,-2.23471073904032,-2.1649897633668824,-2.092893814522175,-2.0180522111647408,-1.9119223042162523,-1.7995036356514493,-1.6840361725060724,-1.5655005583574182,-1.4439044113670567,-1.3192673702750213,-1.1916210714464572,-1.0610051896574024
mp-1198074,Hf(TlS)4,Triclinic,P-1,True,0.0,-1.0172287812592622,9.0,-9.024104658787106,-8.965153162137003,-8.900388936255993,-8.808057018479568,-8.707655630703206,-8.553186079810848,-8.184295613395019,-7.808388016240835,-7.424611388387773,-7.032460340511403,-6.631663249274404,-6.222090298211317,-5.803717102046366,-5.376587762090191,-4.730672061537024,-3.8985932817681657,-3.059790030466644
mp-1224473,Hf2NiS4,Monoclinic,C2/m,False,0.0915021657142816,-1.5465686699999992,7.0,-10.763364019743843,-10.722087689876476,-10.682867075913244,-10.639277813665357,-10.588740689987535,-10.485915453560205,-10.170680096688155,-9.850473172543092,-9.524407302000064,-9.19190100443425,-8.852573963914091,-8.506187827452427,-8.152600869284946,-7.791740868404007,-7.415997017972009,-7.029801672043433,-6.636206241529685
mp-1224454,Hf3CoS6,Trigonal,R-3,False,0.07710098849999625,-1.5486175501874953,10.0,-15.407930738761223,-15.350422319622552,-15.296123366781533,-15.236587344821775,-15.16659900369964,-15.018529709081605,-14.5521512698725,-14.078555844035762,-13.596305032192213,-13.104349016707925,-12.601838297917418,-12.088690590817615,-11.565328841826979,-11.031791572937495,-10.485068120793265,-9.921760113788746,-9.348419797377119
mp-1224493,Hf4FeS8,Monoclinic,C2/m,False,0.07016005769230915,-1.6939162269230759,13.0,-21.946129467637824,-21.8767632950901,-21.810904247613085,-21.73767422850216,-21.65097559127758,-21.459767827893828,-20.84351549633232,-20.217751010122974,-19.578346793442282,-18.927701362632348,-18.265099236864124,-17.59009183812986,-16.902409594793962,-16.2019167534514,-15.488555906110674,-14.753679703964476,-14.005621788753182
mp-1224623,Hf8Mo5S,Orthorhombic,Amm2,False,0.07757435428571569,-0.26623859966518026,14.0,-3.889872363616188,-3.9282468838086726,-3.989047599762369,-4.052563576539095,-4.108364065725681,-4.1396422238009825,-4.1032147183822945,-4.049025246474786,-3.9757498971105267,-3.882562030747904,-3.7689875885662314,-3.6347783975237995,-3.479813207470402,-3.304084903436433,-3.1076037730784947,-2.890438338569922,-2.652696189313968
mp-1194092,Hf9Mo4S,Hexagonal,P6_3/mmc,True,0.00030935250000396763,-0.3249300952008899,14.0,-4.657922280379862,-4.682255786332471,-4.728636154471123,-4.7773565955797705,-4.817985324814709,-4.833709280071598,-4.781349274689864,-4.710855224257875,-4.620913582113033,-4.510714291602257,-4.379799876793397,-4.227944966116462,-4.055050074462464,-3.8611360704861717,-3.6462401890380782,-3.410459972346416,-3.1539361755915287
mp-1192774,Hf9Re4S,Hexagonal,P6_3/mmc,True,0.0013221872571431703,-0.46999148624999926,14.0,-6.908880630518686,-6.986802362615041,-7.086298344574282,-7.187777867400084,-7.280842312025803,-7.348678616347101,-7.348103447981272,-7.32909159684948,-7.290337807733392,-7.2310817726455285,-7.150915764319327,-7.049668305572534,-6.927322825738811,-6.783974816471325,-6.619765155673893,-6.43487844573955,-6.229571522068351
mp-17105,Hf9V4S,Hexagonal,P6_3/mmc,True,0.016768643214289725,-0.23935656660714041,14.0,-3.1461607646616625,-3.090364604979923,-3.055719831503506,-3.0226854839016823,-2.9809126917734057,-2.913584247292201,-2.7775043809089652,-2.6225898424350014,-2.4474731908199807,-2.2513153493559006,-2.033613239167133,-1.7941083229066412,-1.5326803868547572,-1.2493502996662542,-0.944163587635888,-0.6172219387140458,-0.26866196235890527
mp-1193767,Hf9W4S,Hexagonal,P6_3/mmc,True,0.009497080000002711,-0.3137837077008904,14.0,-4.777956077799381,-4.871360138022462,-4.987200758312087,-5.10582918956207,-5.216801209762306,-5.303262299587124,-5.322000106598888,-5.3229521092195675,-5.304804760786562,-5.266756296091062,-5.208386550700103,-5.1295074645429075,-5.030077592620334,-4.910184135141289,-4.76994309567678,-4.60953907661985,-4.429199893315616
mp-28941,HfAg2S3,Orthorhombic,Cmce,True,0.03357271458333244,-0.9286308751562515,6.0,-5.5752605972933535,-5.5577740626121415,-5.544092670838503,-5.528595668676175,-5.508210287919981,-5.44838930081222,-5.228758657389781,-5.004723198992366,-4.775499069285212,-4.5279813815745715,-4.267831239813042,-4.001402651762316,-3.7286833335555816,-3.449710804772444,-3.1645476625799667,-2.873274799027506,-2.575991774062537
mp-1247746,HfCrS4,Orthorhombic,Imma,False,0.08824887899999911,-1.3281489549999985,6.0,-7.9947931322863,-7.976580798352485,-7.95981054571045,-7.9398441572094445,-7.914101169147582,-7.8373891757602205,-7.549731079978479,-7.258640341061943,-6.963250188233189,-6.6629587145362645,-6.357344731339408,-6.0461068077351,-5.729029001256744,-5.405954500758961,-5.076766082711302,-4.741378810277803,-4.399726932735883
mp-7918,HfGeS,Tetragonal,P4/nmm,True,0.0,-1.2191910408333324,3.0,-3.6520810049045176,-3.6453495363855644,-3.641898573714344,-3.6383730959975065,-3.6329589557495554,-3.6136916544981776,-3.5401820633078387,-3.464052901340381,-3.3849345236848865,-3.274286354124091,-3.157106898202202,-3.0366402686770924,-2.9128691819871264,-2.785805402016009,-2.655469603934301,-2.521896533398751,-2.385130010907532
mp-22147,HfPbS3,Orthorhombic,Pnma,True,0.00505923550000098,-1.4550180999999953,5.0,-7.27598300926934,-7.256844767833311,-7.2391754871462535,-7.21058379046748,-7.176998094646965,-7.104560034220283,-6.873332743261034,-6.6390270932057245,-6.401081940021079,-6.159141831282326,-5.912977384312239,-5.6624453682017535,-5.407464464534461,-5.14799485776596,-4.88402574904724,-4.615568062955374,-4.342651303571577
mp-7916,HfSiS,Tetragonal,P4/nmm,True,0.0,-1.262675260937499,3.0,-3.755446216374308,-3.742923608036758,-3.7340224911923805,-3.7252365260899696,-3.7146790151066984,-3.690352293993196,-3.61185686950859,-3.5308330801337933,-3.4469289002769488,-3.359922145180607,-3.2696737342356856,-3.176106020341016,-3.079175809171626,-2.9742412915169583,-2.8397726424698457,-2.702090558871155,-2.5612367883579905
mp-8725,HfSnS3,Orthorhombic,Pnma,True,0.0,-1.2865231696875015,5.0,-6.4507977180260205,-6.435628134750308,-6.407969902232379,-6.376999763128341,-6.341355881917332,-6.267064849345742,-6.034129686516234,-5.798214625491328,-5.558721210738545,-5.315261860486585,-5.067595791322356,-4.815575626614665,-4.559121084377628,-4.298200640511113,-4.03280867831878,-3.762967523113563,-3.4887128975598785
mp-1224272,HfTeS,Trigonal,P3m1,False,0.021310955000000575,-1.3784677526041709,3.0,-4.1503380147306945,-4.1480263705042475,-4.148670829368632,-4.148903933264094,-4.1270203599111275,-4.084027575391497,-3.985856604161386,-3.8844545681395433,-3.7796155784393024,-3.6712096926206703,-3.50106704808773,-3.342864985561249,-3.181732617292411,-3.0176537235405263,-2.850626696219691,-2.6806634795149176,-2.5077861288831844
mp-1224121,HfZrS6,Monoclinic,Pm,False,0.00372172124999981,-1.569317189374999,8.0,-12.587959792917683,-12.558491445076589,-12.52930554823392,-12.49501275507434,-12.452586328588279,-12.334733746342861,-11.90180062046169,-11.465270409398231,-11.021690688720899,-10.571703699985097,-10.116123547142957,-9.65461949054772,-9.18697166584894,-8.71303801402727,-8.232732023364672,-7.746002976055374,-7.252836100083432
mp-554921,Hg(BiS2)2,Monoclinic,C2/m,True,0.0,-0.5961479289285693,7.0,-4.092053061705009,-4.046197985476973,-3.978641564470059,-3.821428626597883,-3.6293246236889933,-3.386840576642295,-2.9339612301075064,-2.478215306712719,-2.0187734674428484,-1.5551070896302654,-1.0868628045372741,-0.6138178056347208,-0.13584798647734786,0.34710643677608033,0.835060271585025,1.3279963579666187,1.9269064005196448
mp-35860,Hg(Mo3S4)2,Trigonal,R-3,False,0.07603984316666601,-0.8855402315000002,15.0,-13.449796714112207,-13.444370786369365,-13.448409521875657,-13.381113356403755,-13.273637494382406,-13.064159132520897,-12.432019872863837,-11.791851941059283,-11.141713833804646,-10.480284750129686,-9.806678065555616,-9.1202801209356,-8.42067957748927,-7.707583386469125,-6.980788658505407,-6.240155083430281,-5.485586170637216
mp-542596,Hg(SbS2)4,Monoclinic,C2/c,True,0.0,-0.5209132721153744,13.0,-6.770389228505662,-6.720008064657236,-6.674562227154326,-6.556268919079853,-6.397659296358578,-6.137471573026147,-5.367704897933024,-4.58727873959176,-3.798399149167494,-3.0001584296013046,-2.1920090018105007,-1.3736359873261392,-0.5448921133155409,0.29427649561418434,1.1438194586791042,1.9121934214683842,2.9504998876010475
mp-1223955,Hg2TeS,Trigonal,R3m,False,0.044354812500001284,-0.3314068285416696,4.0,-1.110996926155596,-1.0505181099857523,-0.9948019630628535,-0.8046906309239259,-0.5348007134530532,-0.24519481609700966,0.09854201483780622,0.44468680951731443,0.793601837575558,1.145517877493786,1.558683108679051,1.959468010557262,2.3627811886725576,2.76866620712548,3.177139374581185,3.588202730255561,4.001841895115381
mp-1190220,Hg4GeS6,Monoclinic,Cc,True,0.016788341761364123,-0.4367239859090924,11.0,-4.360210721931456,-4.210569537488393,-4.066789076383691,-3.6504270899091007,-3.110332904483171,-2.4968955581736143,-1.569526371708003,-0.639108897423112,0.295901896142027,1.264829953847748,2.243226090564203,3.228205435019934,4.22002949124456,5.218847728338584,6.224727537495276,7.2376890365858095,8.257702658912674
mp-1224178,Ho(CuS)3,Trigonal,R-3,False,0.0,-1.0047000576339258,7.0,-6.8743018222571886,-6.816887712746576,-6.765327837044432,-6.712669251390016,-6.655164685427081,-6.557851666765426,-6.300060952388284,-6.036959757953754,-5.7675404783950395,-5.491013828765393,-5.194034265377646,-4.871436762704878,-4.540554331988513,-4.201315270436183,-3.84670420055164,-3.4808601665484566,-3.107492194511371
mp-36662,Ho(Mo3S4)2,Trigonal,R-3,True,0.0,-1.040013895166667,15.0,-15.711012354821158,-15.691567200023918,-15.681389786674508,-15.66698531294388,-15.641051191894253,-15.512023209652966,-14.95923364038982,-14.397267033948348,-13.82411244618023,-13.23835683379777,-12.639010965699384,-12.025347175379594,-11.396831825255095,-10.753043349192268,-10.08667412651597,-9.40161867112429,-8.701365505625173
mp-677152,Ho10Te7S10,Triclinic,P1,False,0.0,-2.017051731774691,27.0,-53.3317865712561,-52.98370298881843,-52.65854396937469,-52.328586211706465,-51.83977528060372,-51.16472607251761,-49.94409044060553,-48.69612575673854,-47.41762026050752,-46.10601617125327,-44.35253468674637,-42.671396400602326,-40.956987917578346,-39.20767857326931,-37.352269254802636,-35.43106127235315,-33.47996593013285
mp-6942,Ho2CdS4,Cubic,Fd-3m,True,0.0,-1.944035255714283,7.0,-13.375012461524864,-13.29033185961195,-13.207412627331735,-13.11093575365913,-13.008069654614,-12.853366290101327,-12.48663317514964,-12.055450853913685,-11.579942467038439,-11.098701535194614,-10.611076197650933,-10.116549301606806,-9.614687884318066,-9.105115014200308,-8.573562891100911,-8.028068574468971,-7.475808468738201
mp-1202787,Ho2CrS4,Orthorhombic,Pca2_1,True,0.05301288827380901,-1.8712918455357124,7.0,-12.838383514689873,-12.747661796495112,-12.659794882145615,-12.568963682884007,-12.471994074438928,-12.323265969246826,-11.962437636339452,-11.596703031282651,-11.224900120860173,-10.846141677439887,-10.459722982333325,-10.065066769768968,-9.661674781879057,-9.249105828386114,-8.813018522569664,-8.361383592324682,-7.901297636933812
mp-1195954,Ho2HfS5,Orthorhombic,Pnma,True,0.01599290739583381,-2.1462857145703147,8.0,-16.966967928164692,-16.883549056152866,-16.80213000053304,-16.716539945367835,-16.623420495877024,-16.466142963384282,-16.04458034769005,-15.617968607636454,-15.185063952258254,-14.744950349804125,-14.296927161001854,-13.840448586869037,-13.375065193692118,-12.900398098074904,-12.402176718236651,-11.888446931697281,-11.366393531140037
mp-1232270,Ho2MgS4,Cubic,Fd-3m,False,0.0,-2.1646698799999946,7.0,-14.846781748585851,-14.744324128464491,-14.644503661776419,-14.541520951944388,-14.432216384724494,-14.2709729818448,-13.89006340835715,-13.501795368078422,-13.107355379380694,-12.706013752072884,-12.265962487163891,-11.753188033449225,-11.233079058489947,-10.705259667132179,-10.155458949931706,-9.591718112059759,-9.021209412227915
mp-1224555,Ho2PbS4,Orthorhombic,Cmc2_1,False,0.0007840781547585607,-1.911016573035712,7.0,-13.150351515899594,-13.06705621182842,-12.986112006363353,-12.893542066019862,-12.794441945751332,-12.643463102793925,-12.280453472966972,-11.91277698644377,-11.539421892435392,-11.159640881431695,-10.772847387824996,-10.378570898188702,-9.97641368841678,-9.566027846979747,-9.133164229474588,-8.685880623961058,-8.231364835608735
mp-1223956,Ho2TeS2,Orthorhombic,Immm,False,0.0,-2.149126157125002,5.0,-10.540664074930815,-10.47613425232107,-10.415442670659289,-10.353636415141878,-10.26817730159274,-10.14858261879423,-9.920568192948254,-9.687734204710365,-9.449424158438234,-9.205116254606503,-8.896283447688797,-8.596275795888353,-8.289906005766726,-7.976849761598157,-7.6428671097427205,-7.29601685786813,-6.943479362519717
mp-1193207,Ho2ZnS4,Orthorhombic,Pnma,True,0.012971924404761914,-1.9787089839285674,7.0,-13.580603510800186,-13.486930551842253,-13.395842924790937,-13.300722452947742,-13.188941729147587,-13.0251060894679,-12.649046886839479,-12.268115614269234,-11.862567039079853,-11.36856632520266,-10.86818224205615,-10.360896600409188,-9.846275401087084,-9.323943785366497,-8.779631880233735,-8.22137881799896,-7.656358930234824
mp-1199431,Ho2ZrS5,Orthorhombic,Pnma,True,0.0024018260416678316,-2.1674066928124978,8.0,-17.068030001336957,-16.967903644857206,-16.870003046625712,-16.768162572857737,-16.65900102730135,-16.485860701225278,-16.048573137208642,-15.606329727580622,-15.155538129787672,-14.696661801118196,-14.230304968341345,-13.755912504599907,-13.273016320430735,-12.78121369453537,-12.266208134369734,-11.736013388107224,-11.197781082654007
mp-1212338,Ho3CrS6,Orthorhombic,Pnnm,False,0.0007341359999983865,-2.0197858344999973,10.0,-19.74550474899627,-19.593714859314534,-19.445234969692176,-19.2921046306329,-19.129982303032584,-18.890686935083487,-18.333865964026455,-17.770421881037343,-17.19869138131125,-16.617406996802266,-16.0255627268344,-15.422337311434376,-14.807023987739406,-14.178997962200214,-13.516783525080626,-12.832370188902164,-12.136438301931932
mp-1189051,Ho3GaS6,Orthorhombic,Cmc2_1,True,0.0,-2.021217784249994,10.0,-19.78163639899396,-19.6197701905418,-19.461058517569032,-19.29775754456081,-19.125674978409794,-18.876747920389036,-18.310726414362172,-17.738615558127847,-17.158847398490213,-16.57024774615137,-15.971903879183309,-15.363086779930201,-14.743181927846734,-14.111656771701082,-13.447127844074537,-12.761673790514465,-12.06607031089704
mp-1203491,Ho3InS6,Orthorhombic,P2_12_12,True,0.01630999068750061,-1.9701531973750002,10.0,-19.27396462337447,-19.121553655052107,-18.96940869031298,-18.81221425038163,-18.64584437370487,-18.402293165235058,-17.841358344640362,-17.27407299334383,-16.69889092319081,-16.114660746355135,-15.520486323797316,-14.915651075027945,-14.299556025959692,-13.671676916804998,-13.010640644450493,-12.328536218748877,-11.636143485298454
mp-1224056,Ho3Sc2S7,Monoclinic,Cm,False,0.0,-2.3039974308072906,12.0,-27.160428638100065,-26.993176753956845,-26.83034398601692,-26.662180251225102,-26.483358793292275,-26.214191800222792,-25.574209971903855,-24.9261212135365,-24.2679992074867,-23.59840124260463,-22.916199405014883,-22.220491822693543,-21.510518580443673,-20.780673523456507,-20.013691059933606,-19.20800524427477,-18.38677265090155