,pretty_formula,crystal_system,spacegroup,experimentally_observed,"energy_above_hull, eV/atom",Ef,total_atoms,Gf_400,Gf_500,Gf_600,Gf_700,Gf_800,Gf_900,Gf_1000,Gf_1100,Gf_1200,Gf_1300,Gf_1400,Gf_1500,Gf_1600,Gf_1700,Gf_1800,Gf_1900,Gf_2000
mp-1196123,Nd2HfS5,Orthorhombic,Pnma,True,0.0,-2.1866866342578106,8.0,-17.321922735253345,-17.245858251679003,-17.17090847282128,-17.090492156251617,-17.000888156503162,-16.84524598876547,-16.42331013545286,-15.994237786686936,-15.552828059726533,-15.099881251783374,-14.62743756413041,-14.14544194764273,-13.653967329595535,-13.15313231324858,-12.643093429843875,-12.124013466265497,-11.596079236236218
mp-1232071,Nd2MgS4,Orthorhombic,Pca2_1,False,0.04766236714285643,-2.112752421785714,7.0,-14.499817171696323,-14.400891485267895,-14.303717840597358,-14.202086414616309,-14.09247484239421,-13.929044349525007,-13.543939083674415,-13.149387979938801,-12.742620464914305,-12.324623177372914,-11.856328958868664,-11.314215008054573,-10.764192353480457,-10.206382586648388,-9.6409419111369,-9.068028441481383,-8.487816457432945
mp-675620,Nd2PbS4,Tetragonal,I-42d,False,0.032479912500000374,-1.8770965699999986,7.0,-12.910601592699146,-12.826146339180678,-12.743157072592926,-12.647246532960192,-12.543147524549232,-12.385289708462093,-12.013392503131977,-11.634741070011664,-11.244366566536296,-10.843238012158784,-10.423509681816611,-9.995201811940674,-9.558439039413683,-9.113370939362131,-8.66017548040573,-8.199027359968406,-7.73011640425927
mp-1209955,Nd2SiS5,Monoclinic,P2_1/c,False,0.0,-1.800612184570312,8.0,-14.163869029578288,-14.072289529246754,-13.982736792501097,-13.888494840943423,-13.785763760386367,-13.617646426645486,-13.18384793777484,-12.743500609563219,-12.29137868493667,-11.828264841787858,-11.346182698501192,-10.855063732354829,-10.354968433457573,-9.841373232710788,-9.292894525584078,-8.735990378020439,-8.170850713034252
mp-38901,Nd2SmS4,Tetragonal,I-42d,False,0.03937908535714474,-2.298445563571428,7.0,-15.794854649162094,-15.692219244945726,-15.589446469625143,-15.480342046589946,-15.36141988597826,-15.186898217063353,-14.79637415947551,-14.397035450197379,-13.98356915172707,-13.555111874334715,-13.102904797658013,-12.637557887101273,-12.162265686786686,-11.67728037846351,-11.182869063777343,-10.679290391025287,-10.166807772984313
mp-555750,Nd2SnS5,Orthorhombic,Pbam,True,0.0,-1.7418515228124996,8.0,-13.697689391989929,-13.604495229443822,-13.498278859140893,-13.38581655536502,-13.264311668685009,-13.07701632091321,-12.623739253157002,-12.163691549925709,-11.691711712838437,-11.20863009559237,-10.706515919515395,-10.195333827662727,-9.675175403059164,-9.146174795422466,-8.608500973161036,-8.062331233186423,-7.5078575713740605
mp-10933,Nd2TeS2,Trigonal,P-3m1,True,0.0,-2.1784332481249975,5.0,-10.706469415909286,-10.64617459083448,-10.588832895032251,-10.529080987207838,-10.444017932498507,-10.322939223552499,-10.091432169185598,-9.853018181332837,-9.603083672575954,-9.342823172352647,-9.006450475681701,-8.677806390623847,-8.342225984729396,-7.999882428928533,-7.650962882604102,-7.295643062787956,-6.934105347064964
mp-1196300,Nd2ZrS5,Orthorhombic,Pnma,True,0.0,-2.200962773437502,8.0,-17.382905093631823,-17.293802875016095,-17.206041302973233,-17.113044317227345,-17.011067970839846,-16.843232758945362,-16.409241706736886,-15.968207437823075,-15.512580517874454,-15.044540733142489,-14.55743315094148,-14.061193394271719,-13.555875734658805,-13.041574937460233,-12.518421623154683,-11.986546449279697,-11.446103063780992
mp-1210093,Nd3CrS6,Orthorhombic,Pnnm,False,0.006853377749999723,-2.0154425509999983,10.0,-19.79120755904764,-19.66082786968922,-19.532430512877085,-19.397439399378207,-19.250968864058507,-19.024505160909072,-18.47750295109156,-17.920746572701034,-17.346637083268714,-16.756481508193275,-16.138385107616458,-15.50726274635122,-14.863191203017909,-14.206291914051189,-13.536729839249016,-12.854669855179118,-12.160295341667922
mp-1198756,Nd3InS6,Orthorhombic,P2_12_12,True,0.0,-1.9838725066874985,10.0,-19.480474046530112,-19.344518449775894,-19.207501189091822,-19.0634911459657,-18.90781823281437,-18.672143860389042,-18.116072972278694,-17.550520496825577,-16.968004608211164,-16.369948412053848,-15.744567030131904,-15.106880006742148,-14.45707190928038,-13.795364707942987,-13.122025969150716,-12.437320066802496,-11.741529878055928
mp-560086,Nd4(GeS4)3,Trigonal,R3c,True,0.0002902315576518433,-1.5571338547368425,19.0,-29.2471239766583,-29.086108420046152,-28.929594331806136,-28.762176296149935,-28.57513059995246,-28.23214659711354,-27.25267029132441,-26.258680031925312,-25.239249980373557,-24.110710611422988,-22.93233360924289,-21.733824476137336,-20.515302973435567,-19.277005116159135,-18.019258941594693,-16.742417514153402,-15.44688325353625
mp-1202775,Nd4(SiS4)3,Trigonal,R3c,True,0.0005966827192871449,-1.6394479957236825,19.0,-30.709685420299486,-30.5262602220864,-30.348359449181743,-30.160123729223653,-29.952611698675053,-29.589413214104603,-28.589943186287503,-27.576232822521224,-26.53740914222027,-25.4747577945179,-24.372137705123542,-23.249289096764144,-22.10625399847894,-20.92930770600671,-19.65412675640088,-18.359922067625007,-17.04708984079685
mp-1204731,Nd4Bi2S9,Orthorhombic,Pnma,True,0.019210126000000827,-1.774988636499999,15.0,-26.272213998954303,-26.12417805769023,-25.954369799833877,-25.755298465635263,-25.53928317101199,-25.204029536780737,-24.389074013926326,-23.560893156230748,-22.709325529832242,-21.83614874283971,-20.925558307894118,-19.99751837587092,-19.052235838802837,-18.089990275811957,-17.1111275874959,-16.115998731759568,-15.003956355168015
mp-21582,Nd4In5S13,Orthorhombic,Pbam,True,0.02014836124996222,-1.4694221329119443,22.0,-31.67812994403761,-31.399805311952065,-31.11338039259494,-30.812988981548674,-30.488921326198746,-29.993562488222345,-28.806510359113517,-27.60184172898912,-26.368648739414965,-25.1082570716918,-23.804613549206735,-22.477543467179274,-21.127219780653263,-19.753917215727824,-18.358031124234174,-16.93998973703102,-15.500254840775511
mp-1192482,Nd4MnS7,Hexagonal,P6_3,True,0.09883243750000403,-2.071151545764188,12.0,-24.408867224591162,-24.24974333868134,-24.09228166375639,-23.925992105360372,-23.744916721009456,-23.46898007368852,-22.81699358049472,-22.15011671941244,-21.46045436936668,-20.75004933509092,-20.002633525480118,-19.2364697055006,-18.447091684368512,-17.6401385785608,-16.817600639156147,-15.979882174998053,-15.127409802483516
mp-37449,Nd5AgS8,Tetragonal,I-4,False,0.021471749196422252,-2.112610044017854,14.0,-29.032839068369135,-28.842826168731946,-28.6558260845378,-28.459453371857464,-28.24665708224667,-27.925745156865837,-27.17575947968713,-26.410921096526423,-25.619025648677784,-24.7963076978226,-23.926213483632164,-23.03711016187237,-22.129373450833686,-21.203424799572005,-20.25973518911598,-19.29875351164461,-18.320956844046272
mp-34913,Nd5ErS8,Tetragonal,I-4,False,0.05717886059523991,-2.3002827015476157,14.0,-31.615709297161285,-31.41357297150033,-31.213951974626443,-31.004565542094277,-30.77842698415261,-30.443888808474796,-29.680027101240597,-28.901080527584966,-28.094853020246205,-27.26387027424251,-26.388567698546105,-25.494010381243957,-24.580490089753347,-23.648345358687507,-22.69739525426968,-21.717830079260832,-20.721163859297825
mp-1220256,Nd6Ge3S14,Trigonal,P3,False,0.0,-1.7718227010869574,23.0,-40.165500652743376,-39.92835908055238,-39.69680542687905,-39.451550298240505,-39.18165080381371,-38.72757756387706,-37.528327529863624,-36.309272228752036,-35.05483687568008,-33.68252086635549,-32.243881467265126,-30.778729837474113,-29.287359269887318,-27.770183493344607,-26.227717376851974,-24.660486065934286,-23.069069597134764
mp-685265,Nd6MnS10,Triclinic,P1,False,0.047948207794121345,-2.1826302564769215,17.0,-36.35856249600192,-36.10363988305447,-35.85093534654105,-35.58567022917398,-35.29942820944437,-34.87785262121511,-33.91945526497034,-32.94076135876335,-31.929071490882777,-30.887490850606806,-29.791963276274245,-28.670805741958908,-27.519691498164136,-26.344413658332172,-25.147135122897083,-23.928423480567822,-22.688878915666734
mp-556107,Nd6Nb5S16,Orthorhombic,Amm2,False,0.0,-1.9842269437037032,27.0,-52.91542202266919,-52.64743057322987,-52.38731678830284,-52.112048251263175,-51.8087209647927,-51.29489981756937,-49.929484058718856,-48.54163638218302,-47.115416624173946,-45.653010746583135,-44.130380580440175,-42.57725016549213,-40.99376088703202,-39.38019118569698,-37.73695359809359,-36.06448935251872,-34.3632835211275
mp-555407,Nd6Si4S17,Triclinic,P-1,True,0.0,-1.6895383467708345,27.0,-45.01400766233728,-44.75833477503251,-44.51021307662206,-44.24706721634615,-43.95615591648035,-43.44417190940888,-42.030235203961,-40.595509323222956,-39.12389552953532,-37.61746214992399,-36.05209172848283,-34.45745596521692,-32.83365737927432,-31.16244769729517,-29.358119851802492,-27.52634282670283,-25.667702746128356
mp-1195765,Nd8Sb2S15,Tetragonal,I4_1cd,True,0.0,-1.962166605287498,25.0,-48.3188186367849,-48.03453133852015,-47.75460910621719,-47.45772935165892,-47.13167894844071,-46.605111863923526,-45.23282995803855,-43.83387781961049,-42.39035722704794,-40.906207869048345,-39.3501030115281,-37.76216704510432,-36.14292720160542,-34.493000074139076,-32.81311624637387,-31.149708534696764,-29.327921091114607
mp-1101764,NdAsS,Orthorhombic,Pnma,True,0.0,-1.8062369751041654,3.0,-5.306607412919886,-5.272079394608216,-5.240075287855012,-5.207172703782262,-5.171474580461808,-5.120922104242818,-5.015026648858559,-4.905322836875552,-4.789390963788123,-4.66776336626702,-4.536588469533084,-4.3334307470220175,-4.120846372186221,-3.9047485443656917,-3.68522167920879,-3.4623461253157215,-3.2362107879128548
mp-1188683,NdBS3,Orthorhombic,Pna2_1,True,0.000999158029999947,-1.546099793833332,5.0,-7.613450940549697,-7.569003861475794,-7.5275575874789915,-7.484355089126483,-7.436731737717112,-7.350339972574773,-7.104884322808553,-6.8557802771529905,-6.600253912386332,-6.338587180861751,-6.0667241983732865,-5.7895836607362385,-5.507168200407387,-5.219514697701792,-4.92669112249097,-4.6287705851839895,-4.325844775694058
mp-15931,NdCrS3,Orthorhombic,Pnma,True,0.0,-1.6846125324999996,5.0,-8.306801180300225,-8.258659200285921,-8.211943687368723,-8.16236711514738,-8.107502197512853,-8.013116417578217,-7.7589640531181665,-7.5004637021588305,-7.234820712867798,-6.962279726099041,-6.678734072550469,-6.389044407927523,-6.093148069563387,-5.791012496927394,-5.4826300004621356,-5.168002176869884,-4.847138838051718
mp-10495,NdCuS2,Monoclinic,P2_1/c,True,0.0,-1.6017580451562488,4.0,-6.275269084899802,-6.2294768798513855,-6.185673855942956,-6.140044439895141,-6.09045962346641,-6.013801206797011,-5.82972481711266,-5.641728311535612,-5.447214876202156,-5.246561599138786,-5.031514082355251,-4.8054505120213316,-4.574282099144686,-4.338119189558956,-4.097085392720972,-3.8513009682177737,-3.600893784225975
mp-1080801,NdLuS3,Orthorhombic,Cmcm,False,0.0,-2.393227955520831,5.0,-11.869426213520192,-11.825390521735677,-11.782611322440816,-11.736935825203677,-11.686012403344153,-11.595654142918779,-11.345645378187712,-11.091430617940416,-10.830233866094073,-10.56231530996066,-10.283580717404483,-9.998902144866847,-9.708229366847338,-9.411538114259546,-9.108831061851404,-8.800117061338916,-8.478524025882425
mp-15227,NdPd3S4,Cubic,Pm-3n,True,0.0,-1.1597911571874988,8.0,-9.179872755963665,-9.129212191623575,-9.082627414033585,-9.032686271297333,-8.975298648678137,-8.864400193925023,-8.539481463971663,-8.207717475544827,-7.866066230704099,-7.514651755738262,-7.149325725206271,-6.774958207877184,-6.391526261201877,-5.999030853574585,-5.597503626358064,-5.164587803810075,-4.715501033461754
mp-1105614,NdScS3,Orthorhombic,Pnma,False,0.0,-2.2962564241874985,5.0,-11.348297887800797,-11.295462964261208,-11.243902152530339,-11.189403585635862,-11.129586616842737,-11.030245676457906,-10.771161989449924,-10.50778213746932,-10.237337379447009,-9.960101376291899,-9.671994405895765,-9.377907180449508,-9.07780813020231,-8.769222864287185,-8.45429221364213,-8.126277867211748,-7.791465223775898
mp-3664,NdTlS2,Trigonal,R-3m,True,0.0,-1.6989725664583335,4.0,-6.675980413731055,-6.632368755428136,-6.587442137725221,-6.5341907084394855,-6.476575525142735,-6.391598613917076,-6.199010953597282,-6.002398497900932,-5.799245274545909,-5.590021650306703,-5.370808616113614,-5.146628136962149,-4.91756046567994,-4.683702474503695,-4.392636963438001,-4.052601516006254,-3.708539256642524
mp-1197152,NdTmS3,Monoclinic,P2_1/m,True,0.0018880555833291623,-2.387681535937497,5.0,-11.741500187338264,-11.67226702659828,-11.604221953932758,-11.533220470354028,-11.456884001988119,-11.340969667642772,-11.065258692286548,-10.785225641194371,-10.49814219408795,-10.204323469097531,-9.89973845634994,-9.589327616701683,-9.273111201928598,-8.951138529512148,-8.623487933629182,-8.28230175824839,-7.933716156152853
mp-1104381,Ni(RhS2)2,Cubic,Fd-3m,True,0.0,-0.7373321399999985,7.0,-5.135457644933785,-5.103881163762598,-5.0745987775181876,-5.041111499013375,-5.000771710687685,-4.908197704000218,-4.603228086895495,-4.293280683934558,-3.9774473873817957,-3.6551425708902494,-3.325981772806223,-2.9897307858647,-2.646260321467759,-2.295500231468827,-1.9298666562241706,-1.553804386954667,-1.1703834903213206
mp-675691,Ni2RhS4,Orthorhombic,Imma,False,0.0,-0.700135015714285,7.0,-4.859742777744797,-4.823727790060213,-4.789205736500209,-4.749359445703901,-4.702306185844345,-4.602927501736086,-4.291126260016707,-3.974339977427384,-3.6516626190935675,-3.3225023400850997,-2.986464314442956,-2.6432987884441186,-2.2928598906021325,-1.935062962742963,-1.5547198544004672,-1.1606853687144731,-0.7590238201565249
mp-642190,Ni3(BiS)2,Cubic,I2_13,False,0.0,-0.45781159357143103,7.0,-3.1011316322809472,-3.061905863977855,-3.003140744988235,-2.9208102113772214,-2.832228297654613,-2.7141203585535916,-2.485842025390191,-2.2507327685771346,-2.0081124950961264,-1.7575686624992626,-1.4988359986441644,-1.23176217427795,-0.9562831959262804,-0.672390064844052,-0.3573618534495111,-0.024531781216630577,0.4180158342737599
mp-22596,Ni3(PbS)2,Trigonal,R-3m,True,0.0,-0.47552029428571324,7.0,-3.151410304236746,-3.0928995946078843,-3.0390232400498665,-2.9640668312891743,-2.882251694124406,-2.770394389175669,-2.5479023692856586,-2.318181436421228,-2.0806199019792757,-1.8348591178996196,-1.5806731964001557,-1.3179346825607894,-1.0465878743514576,-0.7666196273049177,-0.4553048681172793,-0.1259664519571846,0.21228834665821594
mp-5528,Ni3(SnS)2,Trigonal,R-3m,True,0.0,-0.5219008192857137,7.0,-3.522300726524308,-3.474639339878397,-3.4036970883209485,-3.326895801372041,-3.2438763000886,-3.1312250575123564,-2.908229300544148,-2.678201552402836,-2.440455501486923,-2.194568241043169,-1.9402910818177386,-1.6774882774462672,-1.40610619875976,-1.1261482841795107,-0.8148998247069592,-0.48570647698247704,-0.147687952689612
mp-1220013,Ni4As3S5,Trigonal,R3,False,0.0320918854427088,-0.49789419124999945,12.0,-5.833503257320453,-5.766910432771219,-5.707358893674382,-5.641028494270705,-5.564146087640429,-5.419243895990076,-5.0054359741325065,-4.5815218477279025,-4.146062321492847,-3.6981391181273384,-3.237253437089649,-2.560603629188437,-1.8553926750136611,-1.138969283206837,-0.38092125887060035,0.4010791200371848,1.1949521304189936
mp-1220141,Ni8Bi8S,Orthorhombic,P2_12_12,False,0.0,-0.1571184698529431,17.0,-2.3460098805642606,-2.257119400462705,-2.09003346101243,-1.8388359224154884,-1.5746720530474514,-1.282687700115254,-0.9201001623669907,-0.5370367721742628,-0.132241347343248,0.2949613032178764,0.7449692596032378,1.2179523591604564,1.7138931528061256,2.2326558831637016,2.8347107015688273,3.484396481456905,4.561447287352596
mp-1220083,Ni9(SnS)2,Tetragonal,I-4m2,False,0.004553491538461074,-0.32946487884615405,13.0,-4.153125061096473,-4.104082042366649,-4.037386382940834,-3.9594258823677175,-3.8695192801342753,-3.7430426096263094,-3.4980218632450946,-3.236903482607808,-2.958435986620694,-2.6618526327773413,-2.34668357428507,-2.0126740456458503,-1.6597182312483376,-1.2878109679346963,-0.8287661230411878,-0.32252939331164754,0.20362999367122114
mp-3830,NiAsS,Cubic,P2_13,True,0.0,-0.4904237258333322,3.0,-1.4355612798839519,-1.4205457192644528,-1.4079182978035663,-1.3939550253381041,-1.377575547200107,-1.3470661811063076,-1.2621020568142312,-1.1743494235681182,-1.0834635107898478,-0.9892283523051675,-0.8915390697125929,-0.7228360238914688,-0.5455458344775446,-0.3654676934521581,-0.174999847629131,0.02143885617916297,0.2208274507678203
mp-685980,NiMo3S4,Triclinic,P-1,False,0.08578414541666479,-0.8312031125000008,8.0,-6.672506507244204,-6.654577474815009,-6.641462167675577,-6.625240275148395,-6.60255132959219,-6.527629470749551,-6.240085481496013,-5.947185584445267,-5.647925404085259,-5.341624696610974,-5.0278289750018414,-4.706225118930178,-4.376607774073001,-4.038832808549895,-3.6852208205562835,-3.3201342134969387,-2.946546244583269
mp-1220049,NiRuS4,Monoclinic,P2_1/c,False,0.03002007541666707,-0.707334402499999,6.0,-4.197204695018129,-4.160630004806022,-4.1250693500754645,-4.085550783044001,-4.0402452521463506,-3.9442204956817086,-3.637571966718527,-3.327861836751456,-3.0142533914885306,-2.6961861811951255,-2.3732773651692174,-2.0452659332940772,-1.7119856917687066,-1.3733202502385264,-1.0216133894742647,-0.6612482246687783,-0.2952226937557505
mp-3679,NiSbS,Cubic,P2_13,True,0.0,-0.54603254,3.0,-1.598454207360273,-1.5822262168370074,-1.568272358113696,-1.552871750318753,-1.5349005087018215,-1.5025775829949735,-1.3936182128173709,-1.280682584294635,-1.1644136451468254,-1.044652432879018,-0.9213116884087937,-0.7943510761341792,-0.6637636767988688,-0.5295602178560346,-0.3841892130003606,-0.2549782513357668,-0.05717921678996696
mp-554993,Pd3(PbS)2,Cubic,I2_13,False,0.0,-0.5640448192857112,7.0,-3.841319092211844,-3.801329986576879,-3.768285439671353,-3.717711649570049,-3.66172806095014,-3.576488955320995,-3.3812991789025206,-3.179558315078366,-2.9706857681614256,-2.7543539830075217,-2.5303774926253393,-2.2986599350107824,-2.0591642638833925,-1.8118648976095173,-1.5567532473129067,-1.2714357355561,-0.971085864767316
mp-1105696,Pr(ErS2)3,Monoclinic,P2_1/m,True,0.0,-2.3931436093541665,10.0,-23.529679609037597,-23.38852106698255,-23.24952934210871,-23.10466107047712,-22.94945241418074,-22.715747195744637,-22.163337952684294,-21.602380946191637,-21.030660453987544,-20.41533311540032,-19.788268506268444,-19.150536852341816,-18.501909185233476,-17.842227105134093,-17.16967080737048,-16.45362732739516,-15.72738881841903
mp-1188730,Pr(HoS2)3,Monoclinic,P2_1/m,True,0.0,-2.398028025354165,10.0,-23.558944427231644,-23.413619401282347,-23.270837416797825,-23.122629732837517,-22.964628899533977,-22.728610334997065,-22.17418623782948,-21.611289000227988,-21.03745415658547,-20.41956783786106,-19.789210455774462,-19.147163071956797,-18.492895116735934,-17.82594347972578,-17.124986879339612,-16.402162001234682,-15.668290148230597
mp-1189644,Pr(LuS2)3,Monoclinic,P2_1/m,True,0.0,-2.381625422854165,10.0,-23.685433747842197,-23.61378772153335,-23.5454589502976,-23.47227037065722,-23.389630663749582,-23.229265499018943,-22.750846151608414,-22.264423166795517,-21.76768132496995,-21.227674658837223,-20.676176356196226,-20.114157145465654,-19.541300998093767,-18.957356235523246,-18.36213232187915,-17.755478022416582,-17.116580707219505
mp-1104449,Pr(Mo3S4)2,Trigonal,R-3,True,0.0,-1.0658315256111108,15.0,-16.088403735148887,-16.0663314782877,-16.053188050089968,-16.035266180467328,-16.005087089291365,-15.870980846775005,-15.312234124144593,-14.742474845861487,-14.158921999891161,-13.528356562741738,-12.882427537234015,-12.222061399993553,-11.546959783168116,-10.856924989619252,-10.151837044419864,-9.431634406122651,-8.696283806383601