,pretty_formula,crystal_system,spacegroup,experimentally_observed,"energy_above_hull, eV/atom",Ef,total_atoms,Gf_400,Gf_500,Gf_600,Gf_700,Gf_800,Gf_900,Gf_1000,Gf_1100,Gf_1200,Gf_1300,Gf_1400,Gf_1500,Gf_1600,Gf_1700,Gf_1800,Gf_1900,Gf_2000
mp-766422,Li3BiS4,Orthorhombic,Pnma,False,0.051271542656250446,-1.0225432793749993,8.0,-8.018375392173319,-7.942742341904333,-7.846776102897024,-7.737472672708321,-7.621192265668234,-7.452443675610671,-7.071146541710067,-6.68483033993556,-6.29271249090921,-5.8943272919463805,-5.4893964492171605,-5.077784072015035,-4.659451671332892,-4.017053477730062,-3.3076382854946296,-2.5929670573929275,-1.8225467087179261
mp-753982,Li3CrS4,Cubic,P-43m,False,0.02412328250000062,-1.1715839099999998,8.0,-9.42976611086534,-9.409514600540838,-9.381520459595858,-9.350093257645156,-9.311777175438396,-9.22085506495324,-8.917082809339867,-8.607853075737031,-8.292267204547064,-7.969746522157213,-7.639914273836898,-7.302540253701094,-6.9574895847030795,-6.387321145793148,-5.748989416080834,-5.10416311601503,-4.45276943346993
mp-1177695,Li3CuS2,Orthorhombic,Ibam,False,0.004965524531246324,-1.1920923851041667,6.0,-6.925697840801099,-6.847056812457393,-6.761766452232436,-6.67501286800009,-6.583877719704635,-6.464820671851413,-6.237349521396524,-6.00496363214431,-5.76711752678264,-5.523471515280473,-5.2695747670928075,-5.0037660544525,-4.731918464275761,-4.236757498730169,-3.675383118303502,-3.1095915075776404,-2.5394319596191934
mp-774745,Li3CuS3,Tetragonal,P4_2/mnm,False,0.07838417345238291,-0.9815195340996995,7.0,-6.69555183825481,-6.623480573450444,-6.544229392068479,-6.462579816845552,-6.375374306398836,-6.2480100297331616,-5.960144219449739,-5.667248801783437,-5.3686229551052955,-5.0638204529750785,-4.748316811974047,-4.420399356681517,-4.0859070837252425,-3.5275417784198164,-2.902389218889029,-2.272236788466527,-1.6371297313020392
mp-769032,Li3NbS4,Cubic,I-43m,False,0.0015491655592096976,-1.395939860625,8.0,-10.915573627668662,-10.81788823407304,-10.712500630647732,-10.60378982785323,-10.488368410854386,-10.320586599613527,-9.940270754557089,-9.55488816582222,-9.163611687518047,-8.765938305460741,-8.36156174219599,-7.950325378406621,-7.532167923613777,-6.889718734044008,-6.180003802513653,-5.464761290317316,-4.743987826174928
mp-1194339,Li3SbS3,Orthorhombic,Pna2_1,True,0.0,-1.1709941674999993,7.0,-8.011180982137882,-7.9361835058036485,-7.85389625125529,-7.769092449785182,-7.678563774914368,-7.547636918371415,-7.234014404771835,-6.914171425106678,-6.588416641086368,-6.256409542185054,-5.917972434640422,-5.573046786162843,-5.221648926644313,-4.64647131352462,-4.004596615635963,-3.3806722463684675,-2.6869313547275375
mp-756316,Li3SbS4,Orthorhombic,Pmn2_1,False,0.0,-1.0991123012499995,8.0,-8.661580182745725,-8.593824568382589,-8.518248591108978,-8.43922089708005,-8.35329395848973,-8.214731971566083,-7.841386896569725,-7.461706486922241,-7.0758440600172126,-6.683352568919607,-6.283980666993369,-5.87761837429532,-5.464247930429011,-4.826538075981242,-4.121557297420225,-3.4339442068878405,-2.67592790447263
mp-753497,Li3TiS3,Monoclinic,C2/c,False,0.08365499285714328,-1.5186282929761898,7.0,-10.377860690288859,-10.28592182789709,-10.186394695297622,-10.084110563892693,-9.975968895978802,-9.827396917046242,-9.518035276807689,-9.203291642804958,-8.881134416604398,-8.55031724739411,-8.213166457580098,-7.86955303759647,-7.519423876489494,-6.945404063714296,-6.304504754396287,-5.658439745301237,-5.0024784086817
mp-1177470,Li3VS3,Trigonal,R3c,False,0.09115266234693742,-1.3466795060714287,7.0,-9.162986151160014,-9.06844113502335,-8.966515134785634,-8.862012474655241,-8.751793232568408,-8.601261832543697,-8.29008172576551,-7.97372794776033,-7.65150693191292,-7.323000435407443,-6.98795510505266,-6.646244004143744,-6.297822313171233,-5.725330668048247,-5.085797843219263,-4.440957327630187,-3.7907983981819555
mp-760375,Li3VS4,Cubic,P-43m,False,0.0,-1.3597428462500005,8.0,-10.90993354274282,-10.882955688820992,-10.848066266101766,-10.809665013656293,-10.764372808093695,-10.666531577932028,-10.355954210000803,-10.040088302257033,-9.718084943768648,-9.389419355310618,-9.053764530817965,-8.710942085932324,-8.360873110855774,-7.786174524648455,-7.143860919390844,-6.495656982780623,-5.8415479428018475
mp-753429,Li4Bi2S7,Monoclinic,P2_1/c,False,0.037675564807693185,-0.93706590775641,13.0,-11.879701554435577,-11.746765247610572,-11.578736283506684,-11.385035057412875,-11.179727678873643,-10.883540235687402,-10.216510431920442,-9.541907635033333,-8.858400558781272,-8.165181521651775,-7.4617542478735635,-6.747855162289078,-6.0233862225159704,-4.9985277864618745,-3.8826689922304958,-2.7581600554028185,-1.5240093339963217
mp-766971,Li4CrS4,Orthorhombic,Pnma,False,0.049686389444444146,-1.2610498742592584,9.0,-11.158834854636703,-11.073401105625111,-10.977703158242328,-10.878538674584174,-10.771898595621638,-10.611742771017326,-10.23765315324016,-9.856930920452474,-9.468638148959485,-9.072187571424639,-8.667209103609949,-8.253494160329435,-7.830935441864661,-7.1096677371979276,-6.29900684185699,-5.481211731890703,-4.656214355915925
mp-1222529,Li4GeS4,Orthorhombic,P2_12_12_1,False,0.0,-1.2835304906481473,9.0,-11.337055384273322,-11.2458047397636,-11.144536567349597,-11.040117969972869,-10.928588600839454,-10.763948730402761,-10.385816586200379,-10.001520293588502,-9.610153021788344,-9.18286922497447,-8.744497554463642,-8.298220625774649,-7.844027527228647,-7.0921504722780675,-6.252000608059715,-5.405930189370448,-4.553968589297245
mp-1181012,Li4Re6S11,Orthorhombic,Pccn,False,0.0,-1.018272291825396,21.0,-20.89882044008886,-20.696554011606967,-20.48965201538947,-20.274864574913956,-20.04269730099073,-19.667542457228592,-18.708788386505503,-17.736845270801226,-16.749282096749827,-15.744573627534606,-14.721764954641607,-13.680282491877158,-12.619865336187814,-11.250572515072509,-9.781760549304657,-8.295752774561691,-6.79262688318299
mp-753776,Li4SbS4,Orthorhombic,Cmcm,False,0.07337557083333657,-1.121027517592592,9.0,-9.914551388131656,-9.832696235485068,-9.7404991521773,-9.644816876844562,-9.541648641902107,-9.384935641262942,-8.992355904506429,-8.592265696077739,-8.184779069273329,-7.769440383434372,-7.346004962417394,-6.914384446978286,-6.474588654048851,-5.7368622342479245,-4.91063499046192,-4.1011357904327035,-3.2205984949914566
mp-1195718,Li4SnS4,Orthorhombic,Pnma,True,0.0,-1.2737530939814812,9.0,-11.22260745414279,-11.123133615659404,-10.998934263574483,-10.870217434653483,-10.733953496721305,-10.544258800451077,-10.140844852128378,-9.731136165148994,-9.31430778674627,-8.889880238359106,-8.457590188094445,-8.017331657389088,-7.569098916716863,-6.823128325252327,-5.988833102993365,-5.148570686889485,-4.3023704500276665
mp-766597,Li4Ti5S12,Triclinic,P-1,False,0.07123762472221706,-1.5184628373809517,21.0,-31.48413069042163,-31.29413554492899,-31.095528047744686,-30.886309293999943,-30.657779836724064,-30.27381631533553,-29.25408690895631,-28.220718646744483,-27.164451474550553,-26.079467778504412,-24.97754675383879,-23.85795986799529,-22.72024048645963,-21.274250196714153,-19.72911284087757,-18.16693099492374,-16.564011298696784
mp-766540,Li4TiS4,Orthorhombic,Pnma,False,0.0,-1.546775559351848,9.0,-13.705400713312644,-13.61307320449103,-13.510105273014663,-13.403411697629615,-13.28909949952659,-13.121210406380333,-12.739360572867355,-12.350838739983594,-11.95341870088145,-11.545738974616023,-11.13005890121218,-10.70621964414953,-10.274161579514164,-9.544061989940241,-8.725279164607393,-7.900108354633133,-7.0638196440957906
mp-768414,Li4VS4,Orthorhombic,Pnma,False,0.053864803968256325,-1.3601444159259255,9.0,-12.034964659177808,-11.945150313484794,-11.844902831243676,-11.741110044006657,-11.629839588604188,-11.465110391239271,-11.086561408060161,-10.701548748047445,-10.309184236171944,-9.908934499484829,-9.500479202413707,-9.083661581299264,-8.658430303671855,-7.9349781986236465,-7.122681174653316,-6.303854175058525,-5.478487188565978
mp-767171,Li5(NbS2)7,Monoclinic,C2/c,False,0.0,-1.5397930573717946,26.0,-39.185415004279406,-38.87152457162077,-38.55149193991457,-38.22182489460837,-37.87101218689462,-37.339548330557406,-36.06690864045058,-34.77921209712933,-33.47347172534711,-32.14779543512661,-30.80096369663847,-29.43225451062733,-28.04127487052719,-26.26554774535326,-24.3666725752245,-22.447495617078836,-20.50797378490951
mp-532413,Li5B7S13,Monoclinic,Cc,False,0.0,-1.001553554133332,25.0,-24.695622210071694,-24.543059658616865,-24.395622913135227,-24.24645173707055,-24.082133853891257,-23.752949390464988,-22.737382644407482,-21.70903590781346,-20.664722054080293,-19.60238709413175,-18.520747305751293,-17.419023312131134,-16.29679815688383,-14.791611270863864,-13.165105296609097,-11.520149802333194,-9.856792811111028
mp-755139,Li5BiS4,Orthorhombic,Immm,False,0.045051347999999436,-1.2560932306666666,10.0,-12.271868412942379,-12.15795204485579,-12.018659352529461,-11.865962518482437,-11.70511527748737,-11.489980418748079,-11.060129720076468,-10.622909679488838,-10.177459189413025,-9.723295359716786,-9.260153237555395,-8.78794017362044,-8.306672833561347,-7.454157268001499,-6.49216490406539,-5.523637215719308,-4.4980906397415374
mp-752529,Li5CrS4,Orthorhombic,Immm,False,0.09830824400000093,-1.3044512766666672,10.0,-12.730976869933496,-12.611557622616164,-12.479352609176932,-12.343647584192684,-12.199880248855717,-12.001687450513604,-11.588477210953998,-11.167459219362811,-10.737656287948155,-10.298472555649665,-9.849544608721956,-9.39068548267809,-8.921815455127902,-8.080645225085718,-7.128851904497504,-6.169284725012094,-5.201880395988997
mp-756173,Li5FeS4,Orthorhombic,Pmmn,False,0.06359727399999837,-1.2664735986666655,10.0,-12.416487563823221,-12.312680230063053,-12.195414486764914,-12.073805077467696,-11.943082417257049,-11.756618027264036,-11.353428158534747,-10.941312229228508,-10.516911334188027,-10.083203224831582,-9.639898073981634,-9.186886649441249,-8.724166961110246,-7.889529513154015,-6.944731222669578,-5.984042785782112,-5.015752469088014
mp-767409,Li5SbS,Tetragonal,P4/mmm,False,0.053286801428571895,-0.9839724984523807,7.0,-6.61357693478761,-6.522702569967667,-6.420556460824878,-6.3176971938881845,-6.210288365775481,-6.085135654586275,-5.879294852283334,-5.665113047043804,-5.443131061017548,-5.2132042690495,-4.975315624110005,-4.729552730614614,-4.47605525368878,-3.85271490454231,-3.1213653495717875,-2.407852115863772,-1.6244259717427276
mp-756427,Li5SbS4,Orthorhombic,Cmc2_1,False,0.051247167499997914,-1.219388550666666,10.0,-11.918738082731338,-11.808515114104738,-11.685428647066246,-11.558823512733138,-11.424145703741978,-11.23501341169074,-10.80893073547751,-10.374162450571047,-9.930783346170694,-9.478329187893818,-9.01656197008955,-8.545414954212813,-8.064925534523692,-7.2129142716730446,-6.251172284965488,-5.305518697742869,-4.288192131579027
mp-753966,Li6CrS4,Tetragonal,P4_2/nmc,False,0.09819903424242415,-1.298551949090909,11.0,-13.961398264142591,-13.836439669497597,-13.69617374098,-13.552374325647731,-13.399925884914417,-13.192142263812581,-12.768257553448613,-12.335389954032008,-11.892523013673763,-11.439052277589713,-10.974621002527062,-10.499063844697924,-10.0123286590404,-9.079702054600851,-8.015222459743443,-6.942329361716986,-5.860964230623644
mp-757177,Li6CuS4,Tetragonal,P4_2/nmc,False,0.07145392712121268,-1.2270954296590886,11.0,-13.113556399541885,-12.972994816725606,-12.81715802938325,-12.657887252557412,-12.490126024202118,-12.267240010876549,-11.828514088783221,-11.381118279658299,-10.92407862526464,-10.45681658158141,-9.974754023793908,-9.476191690925052,-8.967017221298974,-8.012636413473336,-6.927204812462566,-5.834271767152,-4.733892755002472
mp-754210,Li6FeS4,Tetragonal,P4_2/nmc,False,0.08555514818181909,-1.2819097822727272,11.0,-13.754140636715531,-13.622423639048506,-13.474726664092795,-13.322652547868357,-13.160878465682167,-12.94245293635023,-12.506218280237373,-12.059882426526517,-11.600047205963255,-11.129681776242048,-10.648502980677954,-10.156423207773095,-9.653468044755556,-8.70500390582276,-7.625149024489932,-6.52876435248222,-5.424142917138678
mp-756490,Li6MnS4,Tetragonal,P4_2/nmc,False,0.0033701318181815765,-1.4520107368847952,11.0,-15.602591409806754,-15.464671313674955,-15.310580537036365,-15.152120910573307,-14.984214207198605,-14.760221947749312,-14.318959505396387,-13.866223631419444,-13.40302616848303,-12.928913980660841,-12.44301418229452,-11.943456501368999,-11.425559057630387,-10.460037283258165,-9.362661482037542,-8.257024532936263,-7.143222334205937
mp-776405,Li6Sb2S7,Monoclinic,P2_1/c,False,0.05299486633333128,-1.0796623058333323,15.0,-15.811658166911522,-15.652360075471139,-15.477951842906148,-15.297575346664095,-15.104574732459945,-14.818540888250325,-14.115028298911366,-13.398959908855707,-12.670797697187346,-11.929754106445408,-11.175400096231519,-10.407567154312872,-9.626253850185012,-8.396821381874535,-7.03342090468184,-5.705338444138945,-4.237036249339784
mp-767527,Li6Sb3S,Monoclinic,P2_1/c,False,0.09357310083333337,-0.7396710797499996,10.0,-7.100717979987844,-7.001811102465403,-6.892844271123495,-6.783909583493863,-6.668955390092534,-6.533430737054458,-6.2697695051090925,-5.991891234714572,-5.702082457828185,-5.400199715317333,-5.086279137407189,-4.760491846360059,-4.423076822174751,-3.6395734418984436,-2.7242592216850063,-1.8693760448907888,-0.8116414676390562
mp-767525,Li6SbS2,Tetragonal,I4/mmm,False,0.06394440351851793,-1.150535365,9.0,-10.04849424256573,-9.93996834937952,-9.817118559423403,-9.692586966570165,-9.561744726331906,-9.400012018992577,-9.10442014147879,-8.799197255421804,-8.484689574557539,-8.16063734359793,-7.826956533132176,-7.483704920621339,-7.131015658230689,-6.334332650349072,-5.407836697427289,-4.497954780903628,-3.5169383809283588
mp-766483,Li7(Cu6S5)2,Monoclinic,P2/m,False,0.018232480574713605,-0.6764871488469816,29.0,-18.402097276746495,-18.018586438273253,-17.6358372677444,-17.249592569616723,-16.844225035382838,-16.301492643250317,-15.218440847417515,-14.11209931982512,-12.979235811979663,-11.817514771227529,-10.57436392697586,-9.2299418128961,-7.854402993501225,-5.941084139815253,-3.856905154659437,-1.7464260580923252,0.38984300978759734
mp-768163,Li7(SbS)2,Triclinic,P-1,False,0.0695915234090907,-1.0109611007575752,11.0,-10.776501772989551,-10.655615819343053,-10.519751080302987,-10.382560451484057,-10.238030845458102,-10.060742625369265,-9.725329167186874,-9.376759114194474,-9.01623190298314,-8.64348406441414,-8.258461492950383,-7.861274535325826,-7.4521197898065665,-6.524052948716129,-5.443657395593082,-4.400853417810595,-3.2201282697896474
mp-768990,Li7NbS6,Cubic,P2_13,False,0.06677506603383332,-1.3759898073809518,14.0,-18.93138570572518,-18.787802359262223,-18.625369362574048,-18.45760892577095,-18.278442272248817,-18.01880262170879,-17.438119483142458,-16.84743931564237,-16.245467228295517,-15.631452759204487,-15.004969007137863,-14.365842940267575,-13.714055396850956,-12.542491939536681,-11.217595462085932,-9.883447545696754,-8.54005576422593
mp-767553,Li7Sb2S,Monoclinic,P2_1/c,False,0.09375554791666696,-0.8234781518333328,10.0,-7.927247342839485,-7.8218685579613325,-7.70204157238596,-7.581823866865296,-7.455441555298286,-7.308537496329591,-7.055595630283422,-6.789612038012798,-6.5119415004256185,-6.222427084792358,-5.92108833844965,-5.608087055785004,-5.283653925352965,-4.440868356330055,-3.4463279146188075,-2.489961688840653,-1.3962609823334269
mp-756213,Li8BiS6,Trigonal,R-3,False,0.07024115649999985,-1.2540264167777768,15.0,-18.333724002605052,-18.150394205432605,-17.9330622113756,-17.7003553101218,-17.455389114453606,-17.128932415628682,-16.480334070705354,-15.820611235631738,-15.14847432191065,-14.46320158542007,-13.764400779045555,-13.05194122026877,-12.325854126147043,-11.006625843693875,-9.513083384560385,-8.00992138701632,-6.446662472234177
mp-753974,Li8CrS6,Hexagonal,P6_3cm,False,0.03573103966666391,-1.3519637864444443,15.0,-19.898651702235195,-19.73990381524176,-19.559744289481607,-19.374113986700337,-19.176312486100002,-18.89688263708201,-18.295009540680443,-17.681573544013023,-17.05516897836285,-16.41496112867977,-15.760459286948699,-15.091438455472755,-14.4078334632697,-13.130035305743952,-11.6767766793681,-10.212659980094461,-8.737628101676755
mp-769036,Li8Nb2S9,Triclinic,P-1,False,0.044107064286701636,-1.3700625371929818,19.0,-25.512030715681206,-25.299960000510193,-25.066911145482063,-24.82621377134266,-24.569747367537232,-24.19450387385984,-23.33993758544592,-22.47277266704748,-21.591120954371704,-20.69385269519414,-19.780295022717603,-18.85012649205231,-17.903245586608648,-16.360039122050765,-14.639267534483757,-12.905578856448571,-11.158971817953486
mp-754227,Li8NbS6,Trigonal,R-3,False,0.0829057763742691,-1.402045917444444,15.0,-20.497694728242838,-20.30072574527936,-20.082385544339974,-19.85868442801599,-19.622990379924648,-19.30591361745204,-18.666709718908486,-18.01633365441012,-17.35345126894682,-16.677303506897374,-15.98747013752294,-15.283799749694522,-14.566300758997713,-13.255434638113208,-11.770005597220408,-10.274685473117316,-8.769486600403404
mp-768139,Li8Sb2S,Monoclinic,C2/c,False,0.0815646722727279,-0.8286382540151513,11.0,-8.80393435306143,-8.69441247423383,-8.5679208269583,-8.441004984467833,-8.307337820882683,-8.152239192532475,-7.890019109060161,-7.6135821623423245,-7.324243869189769,-7.021838703149157,-6.706392882049714,-6.37808982097801,-6.037187785816844,-5.104342095774781,-3.998511633172548,-2.930215742231553,-1.7239504870323046
mp-768171,Li8SbS6,Trigonal,R-3,False,0.05958263816667042,-1.258312282777777,15.0,-18.38457742258145,-18.198103264915847,-17.99013973619354,-17.776686774700515,-17.55105225108309,-17.243760358993075,-16.592092276574988,-15.927983437229397,-15.251080149230624,-14.560679324206266,-13.85641566223573,-13.138184391564018,-12.406037457859131,-11.080475718162017,-9.580345876303934,-8.093220219930188,-6.5313435550088315
mp-753546,Li8TiS6,Hexagonal,P6_3cm,False,0.0034980028333322366,-1.5258204006666665,15.0,-22.468219937581566,-22.299249373070708,-22.108490945509573,-21.91200263329401,-21.70320009584579,-21.412708060578453,-20.799745830733677,-20.175181316262787,-19.536320565296055,-18.881554649175,-18.213022284147375,-17.530548221181895,-16.834114965100845,-15.544156004960506,-14.079446530885352,-12.604625213896341,-11.114973083208664
mp-767516,Li9Sb3S,Monoclinic,P2_1/c,False,0.09263451583333326,-0.7599700146153842,13.0,-9.465307523017149,-9.327058100487234,-9.171184020885722,-9.01524165918754,-8.851519646572669,-8.664498022230926,-8.346088874847982,-8.00993727795271,-7.658211971211054,-7.290743714319019,-6.907588648979551,-6.508982759552104,-6.095247758020303,-5.014650751527395,-3.7385532054818715,-2.5209677700400164,-1.0986262835530631
mp-1106183,LiAlS2,Orthorhombic,Pna2_1,False,0.0,-1.4759583368229157,4.0,-5.822463656140725,-5.78659477502957,-5.748937285764731,-5.7096368525648895,-5.666812174085962,-5.597484968590184,-5.413545925748208,-5.2227401950075265,-5.028687472842819,-4.831173045446101,-4.630081603804679,-4.425364894745432,-4.2170202566533295,-3.932616189479236,-3.6245238022913204,-3.313357732040977,-2.9991525681568287
mp-555874,LiAsS2,Monoclinic,Cc,True,0.0,-0.7011549411979168,4.0,-2.716142311652162,-2.6785822546704923,-2.6394201470311205,-2.5988545109099266,-2.5550662307948193,-2.4851578665296294,-2.308990258585652,-2.130255076594861,-1.9485071364805577,-1.7634726478943623,-1.5750166096434501,-1.3155693921749503,-1.0475597999048238,-0.7043406515899635,-0.3382358987092804,0.03018749759036332,0.4009327775948073
mp-29829,LiAuS,Orthorhombic,Fddd,True,0.0,-0.8383439839930537,3.0,-2.3952117473268664,-2.356009051467713,-2.3156789223984084,-2.2748586696396567,-2.231988071186604,-2.175250838133193,-2.0643645938888113,-1.9510432635022306,-1.8349617685754582,-1.7159062157953109,-1.5875127227700458,-1.4525237698794484,-1.3144977589015703,-1.1010227609181271,-0.8644830309307423,-0.6254957885558499,-0.3840996721389498