,pretty_formula,crystal_system,spacegroup,experimentally_observed,"energy_above_hull, eV/atom",Ef,total_atoms,Gf_400,Gf_500,Gf_600,Gf_700,Gf_800,Gf_900,Gf_1000,Gf_1100,Gf_1200,Gf_1300,Gf_1400,Gf_1500,Gf_1600,Gf_1700,Gf_1800,Gf_1900,Gf_2000
mp-1223995,Ho4CdS7,Monoclinic,Cm,False,0.05191274652778599,-2.0667299697916643,12.0,-24.29644392514542,-24.12407685906637,-23.95491213974458,-23.769752619814348,-23.573671086957148,-23.287160068090085,-22.629855979014764,-21.904783872675402,-21.13121969085654,-20.347103009810514,-19.551253057704734,-18.74271614098863,-17.920676377216452,-17.084413345113177,-16.205404780858757,-15.299734114403641,-14.38174929706733
mp-1224079,Ho4CrS7,Monoclinic,Cm,False,0.057620062083333146,-2.0495131831249975,12.0,-24.023968884684272,-23.835948571104325,-23.652224038494218,-23.463098061755947,-23.263300888279755,-22.973152997514223,-22.312141559264177,-21.642905037884937,-20.963434201299794,-20.272187877458276,-19.567932436570565,-18.849654072115204,-18.116471606522815,-17.367600359825303,-16.574444481634806,-15.753021070347607,-14.917598272132157
mp-1197008,Ho4In5S13,Orthorhombic,Pbam,True,0.05244983212120857,-1.4663690493560588,22.0,-31.53138326422738,-31.234328869666008,-30.930944411183845,-30.616184537345653,-30.281064996910157,-29.778414443822815,-28.588087804349886,-27.384319406049308,-26.16411557403873,-24.92536933169275,-23.666545821308233,-22.386488838389646,-21.084326616003338,-19.75933890693655,-18.383066836974955,-16.971704818248988,-15.539710595336688
mp-1223962,Ho4MgS7,Monoclinic,Cm,False,0.020594948611109665,-2.226751298541663,12.0,-26.022454382723694,-25.80191719731551,-25.585458142465185,-25.363399685254848,-25.130486583102204,-24.807042424747436,-24.105168776015475,-23.392617849512668,-22.66972896475063,-21.935118487119937,-21.15644950652817,-20.299271931020847,-19.42859150845745,-18.54368885399348,-17.61603859451731,-16.66172830570151,-15.695101793143444
mp-1223970,Ho4MnS7,Monoclinic,Cm,False,0.01876916527778505,-2.1510716657641873,12.0,-25.229135768024236,-25.036483605892055,-24.847263878095518,-24.651807343161018,-24.444881559978008,-24.14685468379959,-23.476795166495158,-22.79602002349014,-22.1045483172614,-21.40099019461631,-20.683595883359512,-19.949646648742323,-19.193631578003405,-18.42019481430779,-17.602472382688653,-16.756634773261197,-15.897104560343337
mp-18262,HoAgS2,Tetragonal,P4_12_12,False,0.0,-1.565118261666663,4.0,-6.139918653260391,-6.096980963533639,-6.05638691418924,-6.0145334002071404,-5.96946760653646,-5.89817083064864,-5.720348448434989,-5.539529409933761,-5.355096483599739,-5.160301297543373,-4.957795812275728,-4.750593390418883,-4.538529687194624,-4.321469414400213,-4.092324697842177,-3.85515941528654,-3.6136024972512164
mp-1102733,HoAsS,Orthorhombic,Pnma,False,0.0,-1.7130156643749999,3.0,-5.002183537213448,-4.961756770001884,-4.924296470186481,-4.886585462134809,-4.846908059262028,-4.793316345984364,-4.68538595472814,-4.57469089242015,-4.460790000442671,-4.343357450984932,-4.222171248995194,-4.029550492980407,-3.8277901758986017,-3.6225547537617953,-3.406715085706967,-3.1842930656522546,-2.9588765883042516
mp-12453,HoCuS2,Orthorhombic,Pnma,True,0.0,-1.59119268578125,4.0,-6.22588741434258,-6.1786063880097,-6.133757098654499,-6.087729186243193,-6.038575017877562,-5.963287291764917,-5.781585893824033,-5.597008065537429,-5.408935538929353,-5.216887237544778,-5.016238343120866,-4.805121666898658,-4.58918723939143,-4.36829666310485,-4.135359990984371,-3.894439027934956,-3.6491606316134524
mp-1189603,HoPd3S4,Cubic,Pm-3n,True,0.009792361979165776,-1.022805162656251,8.0,-8.075145516936077,-8.022566368881428,-7.9745055634145725,-7.923736161884733,-7.866349424898547,-7.75639189827209,-7.433418397632103,-7.104643324065615,-6.769003225520173,-6.425763963803034,-6.074406793200573,-5.714556407553101,-5.345928683817121,-4.968275847058884,-4.574415982129773,-4.145933858605471,-3.701546113497347
mp-1189393,HoScS3,Orthorhombic,Pna2_1,True,0.01290024958333369,-2.2795936358750004,5.0,-11.23821346160013,-11.178977153880837,-11.121457513807957,-11.06164788765475,-10.997349004029495,-10.894466191306176,-10.632844933146423,-10.367971195561022,-10.099054783368857,-9.825511192997302,-9.546890282065556,-9.262837387835773,-8.973059760062753,-8.674834264551542,-8.363088175728755,-8.035024727856916,-7.700428309196123
mp-1007665,HoTlS2,Trigonal,R-3m,True,0.0,-1.7307830633333317,4.0,-6.782281283006167,-6.733725582126867,-6.684297477685271,-6.627192330744128,-6.566552574218566,-6.479491132257747,-6.285823242389505,-6.0891742426916835,-5.889006706770129,-5.684932836917801,-5.476663203792425,-5.263974397460756,-5.046685490256051,-4.8246446110870425,-4.538221003446939,-4.199593796177062,-3.8572051031917134
mp-1104377,In(Mo3S4)2,Trigonal,R-3,True,0.05146698200000088,-0.7209340648333314,15.0,-10.952953723736918,-10.934856380582724,-10.923410828210447,-10.907563058696836,-10.880075780227703,-10.74949774985851,-10.195301159881044,-9.632214623982964,-9.058375407582194,-8.472526968401567,-7.87384175850269,-7.26174861239058,-6.635880757797821,-5.9959793481844805,-5.341872587096805,-4.673451257282977,-3.9906406331776343
mp-1224567,In10SnS14,Monoclinic,Pm,False,0.020325013250007018,-0.6912454225250122,25.0,-16.74740265640249,-16.463224409036243,-16.148105221516836,-15.819340943726374,-15.467485718783964,-14.93409292846736,-13.659366308646959,-12.369896698860067,-11.063039025672964,-9.737176155479155,-8.391358614909105,-7.025033487226509,-5.638009239684926,-4.230246923079754,-2.8018713274329343,-1.3531174145425808,0.11575898819446451
mp-19804,In2Co3S2,Trigonal,R-3m,True,0.06893994857142793,-0.3212748622321442,7.0,-2.049000533305721,-1.9743209550276926,-1.9009798827247926,-1.8256798631270286,-1.7424142073156834,-1.628649317855209,-1.403263031585814,-1.1691688459710612,-0.925225456405359,-0.6704077899956555,-0.4035810093821848,-0.12540949257225176,0.16225439385250162,0.458970874216293,0.7735955084271477,1.1162712650195843,1.4674115203548403
mp-1212041,In2CuS4,Cubic,Fd-3m,False,0.05778523011904646,-0.5643519298586354,7.0,-3.795654497537299,-3.719873638358847,-3.641747811040373,-3.560406882620745,-3.472866395616183,-3.33378402584605,-2.9831486636821882,-2.6284942139053644,-2.268997556083689,-1.9041103753694033,-1.52922993783851,-1.142558062551327,-0.7498700056578222,-0.3511692055792821,0.053496959311754466,0.46405536178363604,0.8804218915416229
mp-21112,In2FeS4,Cubic,Fd-3m,True,0.08298485196428906,-0.7266246547619032,7.0,-4.951459684205023,-4.880090848656129,-4.80567227220461,-4.727095442866685,-4.641109540511533,-4.502055093215338,-4.149478435512256,-3.791451379629798,-3.4247265941188267,-3.0523034658468706,-2.6738742290196926,-2.2892523521768116,-1.8983510403721588,-1.5011343476667633,-1.0976123409339689,-0.6791697502452543,-0.25412823577356214
mp-22356,In2HgS4,Cubic,Fd-3m,True,0.0,-0.7311374701190471,7.0,-4.920283229187014,-4.832848960693751,-4.742806470705023,-4.582117672691784,-4.386347106423716,-4.1399042226074645,-3.6827468186988823,-3.222391180159665,-2.758010040835792,-2.289080996642836,-1.8152734803148292,-1.3363854139332858,-0.8523154925246796,-0.3630142965531018,0.13151639855236397,0.6312449227814003,1.136123440907939
mp-20708,In2Ni3S2,Trigonal,R-3m,True,0.0,-0.5480996397619029,7.0,-3.6440600546983184,-3.570157274113851,-3.495808266126269,-3.4169040523580456,-3.33155775526011,-3.2163931593733865,-2.9907389488200433,-2.7579221568464103,-2.5172647632952545,-2.2683604443018632,-2.010966729195607,-1.7449520173342519,-1.470275116715202,-1.1869373928986775,-0.8722345011914605,-0.5395141710949893,-0.1979002600149382
mp-674493,In2NiS4,Orthorhombic,Imma,False,0.07320909648809515,-0.6985162740476178,7.0,-4.737184014716691,-4.6611379542674065,-4.581708422283793,-4.497655280104347,-4.406720608049092,-4.2638066795432366,-3.908961461499022,-3.5497458058910727,-3.1853593937592315,-2.815297440338142,-2.4392438883892975,-2.0570039150079467,-1.6684855430953558,-1.2736455716988289,-0.8649084326188881,-0.4467375728260201,-0.022198913259087405
mp-619279,In2PbS4,Orthorhombic,Pnma,True,0.0018694708928572723,-0.8153426851190463,7.0,-5.555189019926705,-5.4791586070446625,-5.400247391436912,-5.3093601274305,-5.211722960226002,-5.062213288915826,-4.700958885563276,-4.335611808029899,-3.9654567246592687,-3.590059327962283,-3.209156418657633,-2.822590485339763,-2.4302975345343434,-2.0322550938993356,-1.628485667474477,-1.2190395810196932,-0.8039781433579787
mp-1077883,In2Rh3S2,Trigonal,R-3m,True,0.0,-0.6108037179464288,7.0,-4.186780227509065,-4.140639624952806,-4.096456277400023,-4.05107575899431,-4.000316534985993,-3.9200126298496625,-3.729299951628307,-3.531446457027858,-3.325767907307884,-3.1118766343532753,-2.8895612604093923,-2.6587368242080016,-2.4194118824121027,-2.1716313306643134,-1.9155036967386359,-1.6511466743796515,-1.3787013775614234
mp-616255,In2Sn3S7,Monoclinic,P2_1/m,True,0.037241445729165434,-0.5481459700781292,12.0,-6.382628159286728,-6.27505902132979,-6.124025908940295,-5.964535955210635,-5.794087713485346,-5.5335727364368275,-4.903125962953176,-4.266070937972188,-3.62109594716604,-2.967377028413244,-2.3044278183384765,-1.6319589753629806,-0.9498459162066801,-0.2580584823296661,0.4433688196055954,1.1543374277629255,1.8747389099190315
mp-27195,In4Bi2S9,Monoclinic,P2_1/m,True,0.0,-0.775401850277775,15.0,-11.43951306187154,-11.310169705245851,-11.150360452715033,-10.963178573134599,-10.761929864289796,-10.445215422977997,-9.653388407444261,-8.853659164288084,-8.044373281464589,-7.224501713198645,-6.393405023693639,-5.550691868152121,-4.696191877892701,-3.829840537100452,-2.9516728172130016,-2.0617909328072983,-1.0592904956761267
mp-1224757,In4Bi3S10,Triclinic,P1,False,0.007667113970585504,-0.7414754634803917,17.0,-12.364432129848844,-12.216548888462547,-12.02702301977397,-11.799693268164045,-11.556602969065398,-11.185018506555984,-10.285286163163754,-9.376502541095011,-8.456814474168766,-7.525072604324254,-6.580560149078369,-5.622839353790635,-4.6517208996531,-3.6671379218730458,-2.66913278401352,-1.6578243003625985,-0.4818128625286988
mp-556528,In4GeS4,Cubic,Pa-3,True,0.0,-0.6766821796296275,9.0,-5.881957687063446,-5.781020387328304,-5.675753490455326,-5.56750614322707,-5.452036089744537,-5.283343600461139,-4.90106348580299,-4.512519725404157,-4.116793051319455,-3.6850296262791744,-3.2420622473222185,-2.7910486556345813,-2.33197379381528,-1.864872435300157,-1.3898299252879092,-0.9069681200678339,-0.41641174433598493
mp-646878,In4SnS4,Cubic,Pa-3,True,0.0,-0.6422758897222233,9.0,-5.572880528434325,-5.470477737392535,-5.349037363515652,-5.22324948741014,-5.089802567795856,-4.902812955345936,-4.502008739234485,-4.094810287135159,-3.6803802091149045,-3.2582307351683486,-2.828102679124573,-2.389865188087585,-1.9435083868090715,-1.4890711944470105,-1.026641029061162,-0.5563449290934948,-0.07830761924004648
mp-675124,In4SnS8,Trigonal,R3m,False,0.013726697500000995,-0.667022063461537,13.0,-8.469931335552943,-8.343597776692357,-8.196104296211288,-8.040522634167308,-7.872584443971835,-7.602156094295954,-6.9095634168942,-6.210117029162378,-5.50235816390008,-4.78537290546517,-4.0586074561917815,-3.32172517256975,-2.5745798181969413,-1.8171154448193894,-1.0493627410409125,-0.271413540310526,0.5166236283432433
mp-715212,In5(BiS4)3,Triclinic,P1,False,0.018246490562498607,-0.7501075964166652,20.0,-14.735227856024995,-14.561944766054095,-14.344858294329114,-14.088106618397859,-13.812630953983794,-13.3832496918488,-12.320438200851921,-11.247145682653574,-10.161165909050393,-9.061125782578344,-7.946168921929978,-6.815770079273598,-5.6696982961220606,-4.507865824004554,-3.3303165276898596,-2.1371842749426264,-0.7770899581824722
mp-36751,In5AgS8,Cubic,F-43m,False,0.0,-0.7027461991071411,14.0,-9.542484801290087,-9.387428505290313,-9.22451805059251,-9.054598029024312,-8.871850844476016,-8.585703783083936,-7.876219612895493,-7.158536620748464,-6.431084225208011,-5.6865886706004805,-4.927452511050202,-4.156598532731923,-3.373930878043506,-2.5794408773695388,-1.7732108502886914,-0.955378759820018,-0.12610038938656842
mp-674514,In5CuS8,Cubic,F-43m,False,0.009970630892857102,-0.6991201857142845,14.0,-9.389296882041855,-9.208873550342933,-9.020684156541305,-8.825566037450878,-8.617706779114615,-8.30654506840469,-7.572158183395996,-6.8296927023705685,-6.0775770074630415,-5.314804638434278,-4.5365013706347135,-3.7407094388580546,-2.9331473607936474,-2.11380335753449,-1.2827576757981767,-0.44014620574271035,0.41387734206993443
mp-19833,InAgS2,Tetragonal,I-42d,True,0.0,-0.5591274251562499,4.0,-2.1862942405576833,-2.155254389829758,-2.1239422288182817,-2.0911954464089866,-2.0551265226745863,-1.9928297260146461,-1.824150350442462,-1.6527614098404104,-1.4781938822295295,-1.2938558967307818,-1.102561097018425,-0.9074793467250553,-0.7086131663883144,-0.5059899873991789,-0.299657759785557,-0.08967663016355942,0.1238877191221972
mp-1078776,InBiS3,Monoclinic,P2_1/m,False,0.0033355422499976584,-0.7438752548333326,5.0,-3.6692905818524864,-3.631681770432035,-3.5807354731626373,-3.517496598736578,-3.449600565092079,-3.3432646661936465,-3.078611112655272,-2.8113787595378597,-2.541015790682935,-2.2671781544015888,-1.989648905182996,-1.7082941399928941,-1.4230532690255364,-1.1339030596250517,-0.840852405122563,-0.5439329587058079,-0.19267000100157716
mp-22736,InCuS2,Tetragonal,I-42d,True,0.0,-0.6243807539062498,4.0,-2.424930422173402,-2.388535185337319,-2.3519557348130102,-2.3140225044724763,-2.272853156541096,-2.205553360154301,-2.0319829193528536,-1.8558231394633933,-1.6766039620764257,-1.4940008117474401,-1.3035505533767875,-1.103542499216024,-0.8997935450942816,-0.692328013110945,-0.4811917804328525,-0.2664429208150434,-0.0481450437410782
mp-504951,InGaS3,Hexagonal,P6_1,False,0.0,-0.7795609626874996,5.0,-3.8167245472811286,-3.756452857026755,-3.6952787744612907,-3.6317773943163,-3.5639173469464454,-3.457808137540772,-3.1935108273118153,-2.9267300691128755,-2.65689331817482,-2.3836368306286047,-2.106738478810737,-1.8260622868258902,-1.5415435191461822,-1.2531558338241442,-0.9609060513298312,-0.6648227155593839,-0.3649467313298812
mp-1087488,InMoS2,Hexagonal,P6_3/mmc,True,0.09082810374999895,-0.633297877656247,4.0,-2.4997184372964756,-2.473224861078821,-2.446569872644671,-2.4185652501164285,-2.3873255464278738,-2.329964722158703,-2.16635294565501,-2.000182922979304,-1.8310053243327529,-1.6585308129089738,-1.4825787845716842,-1.303032581732566,-1.1198304662361966,-0.932935610780496,-0.7423348159919083,-0.5480312248072128,-0.35003351589170695
mp-21365,InSbS3,Orthorhombic,Pnma,True,0.0,-0.5215987926875016,5.0,-2.566264587074972,-2.5309591366551794,-2.4948290262142896,-2.4562918130428124,-2.4131751729428914,-2.331451802273184,-2.0691762327338616,-1.8030055968382812,-1.5333239751994876,-1.2598059718781744,-0.9822615885573747,-0.7005828329661572,-0.41472984390944223,-0.1246938987588253,0.16949641697443774,0.4449318007270673,0.7893647870766962
mp-12079,K(CoS)2,Tetragonal,I4/mmm,True,0.0,-0.7378304938750005,5.0,-3.511964180292132,-3.4471848396463427,-3.3853835026059267,-3.321502574883427,-3.2516430390126065,-3.1535276043075013,-2.9465426157035006,-2.687715211414332,-2.39050197036884,-2.0869219024939127,-1.7761087385496435,-1.458421398220331,-1.1350196886531192,-0.8061358573185835,-0.4658177673358974,-0.10725352108179109,0.2565341659825151
mp-1238839,K(CrS2)2,Orthorhombic,Pmmn,False,0.0,-1.1223980238928581,7.0,-7.785285371817929,-7.735501023041932,-7.688456434322004,-7.6383490997893055,-7.581976911548082,-7.473783004297311,-7.153533435844192,-6.782318622344308,-6.37346272014455,-5.959045284014197,-5.538517059844765,-5.11146453788899,-4.677571872052962,-4.236586502416255,-3.788307064023435,-3.3325641593613824,-2.8692055925632403
mp-2646999,K(CuS)2,Tetragonal,I4/mmm,False,0.0,-0.7572189904499993,5.0,-3.604256089311532,-3.539337580353422,-3.4782842595371415,-3.4162375272376178,-3.350591831294097,-3.2580189404599125,-3.0580876114443027,-2.8080467785951058,-2.5216162741966146,-2.231140547363153,-1.927774886609905,-1.608140843118294,-1.283870318143359,-0.9549965644932881,-0.6215808152411384,-0.2836909986433067,0.05858896861599305
mp-1070151,K(FeS)2,Tetragonal,I4/mmm,False,0.0,-0.8705171964500039,5.0,-4.168983259314597,-4.102499776443945,-4.038471936189909,-3.97156438088213,-3.898638833065763,-3.795732766007796,-3.581529824742078,-3.314354758509956,-3.0030789775612057,-2.687142334440739,-2.3662900539232625,-2.0403669861485865,-1.7092809301796965,-1.3729863701042593,-1.0314699159969347,-0.6674227017937575,-0.2974037439353836
mp-1103534,K(Mo3S4)2,Trigonal,R-3,True,0.04381697666666895,-0.8738796960833345,15.0,-13.01431707272985,-12.936218315522268,-12.866844210163089,-12.79292071452685,-12.707267540478709,-12.518445882240504,-11.905906167062838,-11.238115931782044,-10.52751932889694,-9.805629676730447,-9.071561387234311,-8.324698728400627,-7.564631397879573,-6.791064274062563,-6.003796540440913,-5.202685813985717,-4.387634567659926
mp-560296,K(Mo6S7)2,Trigonal,P-31c,True,0.06045625092593099,-0.7712090034490765,27.0,-21.033745371084713,-20.997890262370635,-20.979572350738668,-20.95416415297324,-20.90835020883448,-20.681688462915748,-19.71297244842836,-18.681545716442173,-17.598342746896343,-16.493844055239855,-15.3664761043104,-14.215139489796364,-13.039098776759637,-11.837820880729815,-10.610931687538766,-9.358164543429133,-8.079326694987358
mp-8116,K(MoS)3,Hexagonal,P6_3/m,True,0.0,-0.9320271824553592,7.0,-6.449587782202112,-6.406055007553171,-6.367901781528474,-6.328339952822065,-6.283735222005825,-6.199275399116864,-5.954440487135207,-5.6583148909193515,-5.3244082878816315,-4.9849634706003165,-4.639586131331639,-4.288005269526657,-3.930041329706585,-3.565565605399715,-3.1944922936550757,-2.816758749304462,-2.4323231563328136
mp-1224361,K(MoS)9,Hexagonal,P6_3/m,False,0.06663942315789839,-0.7340817375822349,19.0,-14.120622370711729,-14.105006045845006,-14.103581814836238,-14.098208085289354,-14.079115385671201,-13.942488276390428,-13.327149866387764,-12.653060574755234,-11.932220406345497,-11.195839350862899,-10.442835151449621,-9.672453135252994,-8.884188614205964,-8.077674918975006,-7.252652948949681,-6.408935788233343,-5.546386394434428
mp-1223960,K(Nb3S4)2,Trigonal,P-3,False,0.0,-1.3974116298166668,15.0,-20.625491780544777,-20.486055800685,-20.35525741250884,-20.219946945554824,-20.073018734686485,-19.823077504208072,-19.149629648618983,-18.421211109170734,-17.65031578702775,-16.868544060677745,-16.07506630932125,-15.269347642531969,-14.451052380958455,-13.61996002599053,-12.775950602701087,-11.918968788226028,-11.048979241360293
mp-558518,K(NiS)2,Tetragonal,I4/mmm,True,0.053632893000000514,-0.7961906744499991,5.0,-3.802239231848441,-3.7363819470546398,-3.6723128436140478,-3.60443331050086,-3.5315908711619244,-3.4309464895622668,-3.2221870754919175,-2.962615457686443,-2.665997071373596,-2.3647634258324937,-2.0586431629493145,-1.7474645499753318,-1.431125021668203,-1.1095645520881279,-0.7675984811641481,-0.4140753766303007,-0.055042776459078624
mp-27889,K(V5S8)2,Monoclinic,P2/c,False,0.03053165944444025,-1.28548950175,27.0,-34.245318952433614,-34.022563606053595,-33.81004691294058,-33.58572210190678,-33.33756925087887,-32.883887041352345,-31.584244256577357,-30.22216644482541,-28.808335196985563,-27.37307660035732,-25.914637815296157,-24.431791956534838,-22.9237237839842,-21.389884666715858,-19.829922255602874,-18.243586479776404,-16.630689767975554
mp-1223993,K(VS2)2,Monoclinic,Pm,False,0.04709141642856807,-1.2870871467499998,7.0,-8.889558583216736,-8.826735914157052,-8.7663151287996,-8.702674060188333,-8.632763992146401,-8.511146212453578,-8.177700786275718,-7.793627991404931,-7.372351481519306,-6.946058600163566,-6.514299590560424,-6.076764586015942,-5.633249674933801,-5.183618377613298,-4.72778955504085,-4.265705744200936,-3.797330829446409