,pretty_formula,crystal_system,spacegroup,experimentally_observed,"energy_above_hull, eV/atom",Ef,total_atoms,Gf_400,Gf_500,Gf_600,Gf_700,Gf_800,Gf_900,Gf_1000,Gf_1100,Gf_1200,Gf_1300,Gf_1400,Gf_1500,Gf_1600,Gf_1700,Gf_1800,Gf_1900,Gf_2000
mp-1189832,Eu5(ZrS4)3,Hexagonal,P-62m,True,0.0,-2.099788008749999,20.0,-41.38135228927692,-41.15034293165476,-40.926594088220924,-40.69422217148197,-40.44455239467395,-40.04159265988174,-39.00524311701845,-37.956977090665156,-36.87780750585473,-35.77899638975393,-34.66363823424801,-33.53124406657395,-32.38154872603701,-31.214442699125172,-29.505891496458915,-27.816948299685876,-26.1138533202908
mp-1198785,Eu6Sb6S17,Orthorhombic,P2_12_12_1,True,0.0,-1.3183030436206886,29.0,-37.61062422986364,-37.34688260800831,-37.09502873587173,-36.83140862048105,-36.54291037023306,-36.03618391545224,-34.49922045319853,-32.93862212781766,-31.345319514052925,-29.727789620788784,-28.08508426407797,-26.416725091029228,-24.72258164775893,-23.002718594097608,-20.628554459596074,-18.410802552388745,-15.782369239966975
mp-581575,EuGeS3,Triclinic,P-1,True,0.0,-1.3587802958333346,5.0,-6.718379282860358,-6.680929975280706,-6.645697931295031,-6.608683752190312,-6.567702676602297,-6.488745020208703,-6.2517744197519445,-6.012191853939084,-5.767438977099286,-5.490520962811822,-5.206340832400088,-4.918081260536199,-4.625694094580805,-4.329173721197108,-3.9237355424999736,-3.521620363358751,-3.116107415791636
mp-1190059,EuHfS3,Orthorhombic,Pnma,True,0.0,-2.0850535841875,5.0,-10.334091527249335,-10.291859882429728,-10.251274427980274,-10.208319182299437,-10.16081560260615,-10.07476747817507,-9.830167465803537,-9.582459037850478,-9.329126342296922,-9.071510563501018,-8.8093937195214,-8.54265019876808,-8.271218375004768,-7.9950812341588,-7.6094438140397145,-7.226537591642057,-6.83963661683136
mp-20961,EuPd3S4,Cubic,Pm-3n,True,0.0,-0.9852831764062522,8.0,-7.759489722374596,-7.703047853193309,-7.651225896792071,-7.596810388117039,-7.5359050249412505,-7.422627866787575,-7.096642554488742,-6.765079538258586,-6.425102033402281,-6.07785287742278,-5.72299469994978,-5.360328388014246,-4.989749121054928,-4.611187390189794,-4.119802576844826,-3.605383834696866,-3.076320806924043
mp-1007900,EuTlS2,Trigonal,R-3m,True,0.0258864279629627,-1.4294110033333363,4.0,-5.571992018171133,-5.522243316096805,-5.471723780652434,-5.4136422464977105,-5.352153583714156,-5.264442230157725,-5.070432248562246,-4.873665026132369,-4.671829803831558,-4.466415759648481,-4.257314839584174,-4.044479826896052,-3.827909096399619,-3.607629043055323,-3.226350206930973,-2.8044561009690483,-2.380061845250605
mp-1189927,EuZrS3,Orthorhombic,Pnma,True,0.0,-2.0813831405000016,5.0,-10.286214338730677,-10.236870405114157,-10.189398603724042,-10.139788135111447,-10.085837655023585,-9.993521932680189,-9.742792167657253,-9.489047265800789,-9.227422823503488,-8.960639514163244,-8.689784221880055,-8.414722007189123,-8.135372588104566,-7.851695112651455,-7.458868707875997,-7.069092721426204,-6.675608037390544
mp-1188182,Fe(CoS)8,Cubic,Fm-3m,True,0.0011097253633218784,-0.7026206864705888,17.0,-11.677895642083376,-11.560850563868541,-11.453096164046606,-11.337140410193829,-11.198607505235188,-10.948867061729743,-10.265518821292357,-9.562452359130312,-8.833894728785907,-8.080332059579817,-7.298472039153836,-6.4898554587554464,-5.65918598812414,-4.807437338722565,-3.910804643974391,-2.933396975720658,-1.9355626656641185
mp-37276,Fe(NiS2)2,Orthorhombic,Imma,False,0.0918864835357125,-0.6995153314285696,7.0,-4.8022847757649085,-4.752682951647514,-4.704106631484207,-4.649552086418119,-4.586908569904994,-4.4707591347658004,-4.140569273953096,-3.8043071566410696,-3.45862180832726,-3.1064193371312037,-2.7473028442328022,-2.3810153208953153,-2.0073994948964167,-1.6263634530483397,-1.222700389135344,-0.7965964013172115,-0.3623657911100988
mp-10754,Fe(RhS2)2,Cubic,Fd-3m,True,0.07726790761904834,-0.6938171549999989,7.0,-4.85283431919853,-4.827051204121835,-4.803895914603622,-4.7770010901344335,-4.742726212702946,-4.655127828419241,-4.353542912849754,-4.045900250808413,-3.728844722070618,-3.405294871922308,-3.0748745301540534,-2.7373577809451035,-2.3926205178501974,-2.0405998477365035,-1.6812975460330897,-1.3060796870618443,-0.92327207671784
mp-1224703,Fe2AsS3,Monoclinic,Pm,False,0.05730368916666695,-0.6727843874999996,6.0,-3.9670848407753727,-3.931165524577457,-3.898178676778125,-3.8620153852999524,-3.819077411657412,-3.734200851925521,-3.4861462366459097,-3.231402513496058,-2.9643260033708145,-2.691438704584476,-2.412468156286808,-2.0597485704163248,-1.6956400525968087,-1.3259074375345694,-0.9505133068502083,-0.5521348110788686,-0.1473212173763816
mp-532329,Fe3(CuS5)2,Triclinic,P1,False,0.04412947083333396,-0.6365324111666666,15.0,-9.297234629937194,-9.172051590936896,-9.049331090503149,-8.916967143721449,-8.767867559052275,-8.488224250518488,-7.676857495606458,-6.854250170324418,-6.010991216516686,-5.1561541950309255,-4.280269800142557,-3.379542530967676,-2.465338008875186,-1.5375269411418202,-0.596077449435807,0.3849485688136518,1.380663409778716
mp-1225166,Fe4Te3S,Tetragonal,P4mm,False,0.06997989593750198,-0.3791323603124983,8.0,-3.017218244351005,-3.007739188999174,-3.00841665833598,-3.007578463153566,-2.93875380778039,-2.8253689343583845,-2.6428350092423774,-2.4449757510298937,-2.2215770624904776,-1.9863966953624619,-1.5650313622936185,-1.1785888892173357,-0.7825057314183539,-0.3767678290481715,0.03860975941898559,0.4982064350039064,0.968889330193063
mp-561511,FeAsS,Monoclinic,P2_1/c,True,0.0,-0.6133404200000001,3.0,-1.8037951448393268,-1.7889485036119783,-1.776823732174946,-1.7638284670427653,-1.7478894530966276,-1.7167312627042501,-1.6295273932450662,-1.538455054216206,-1.4407224625505606,-1.3396178237067744,-1.2350445507276269,-1.0594512959367322,-0.8752698611225034,-0.6883066932800115,-0.49854567429589025,-0.2973269340835074,-0.09292717908184933
mp-1224978,FeCo3S8,Trigonal,R-3,False,0.007675967499999992,-0.716253268333333,12.0,-8.367762858204458,-8.260199237579844,-8.154261552871429,-8.04030025478575,-7.9110742998388135,-7.677557636930409,-7.0191524485616394,-6.351159270912461,-5.669048272849317,-4.974623361867774,-4.266263801373867,-3.5442829341439204,-2.8102719876456437,-2.064481157798369,-1.2979171231047353,-0.49167341871285686,0.3264641639789865
mp-1225004,FeCoS4,Monoclinic,P2_1/c,False,0.014097574166666682,-0.750800494166666,6.0,-4.391698918328872,-4.338025508132796,-4.285034475647631,-4.227831605380916,-4.162986560593507,-4.045565006723535,-3.7150923600461683,-3.379543291408285,-3.035506593073344,-2.6857394294436343,-2.329584305725824,-1.9670693759219562,-1.598677251744844,-1.2244635903084262,-0.8414164176028969,-0.4374582590921392,-0.027366085720142763
mp-1078387,FeCu3S4,Tetragonal,I-42m,True,0.01060181725694509,-0.5332927499999993,8.0,-4.206700247127268,-4.168073006684178,-4.134524817747365,-4.09832296356583,-4.055123403922249,-3.9585736588773983,-3.6477517860127247,-3.3304007659872124,-3.0030070249678236,-2.6682887748680457,-2.312952227221496,-1.9319104626643622,-1.5425992109800077,-1.145065043506131,-0.7393914231321439,-0.3170268288186122,0.11363495053420003
mp-1224980,FeCu3S8,Trigonal,R-3,False,0.012001976250000546,-0.5232577858333324,12.0,-6.085154727622305,-5.987460734579523,-5.892723454257625,-5.791591829356717,-5.678765014351046,-5.4636405472993355,-4.825894228363461,-4.181159287924551,-3.5253007748822185,-2.8606107555131857,-2.1735008298561223,-1.4586782879330418,-0.7334424983734902,0.0022548348967745824,0.7483869784442909,1.5135406583014408,2.289338281235473
mp-675830,FeCu5S4,Monoclinic,Pm,False,0.07899169212500023,-0.35779998099999943,10.0,-3.458617528885008,-3.4062240151089536,-3.3628626343663126,-3.317862671316356,-3.265319649610836,-3.1579884142135333,-2.8344084581252487,-2.501980173750006,-2.1569559944805565,-1.8018524601478685,-1.4147287097349537,-0.9872514347635892,-0.5485734360337347,-0.0988316964380509,0.36180156921177087,0.8417918413983276,1.33265911387657
mp-1224893,FeNiS4,Monoclinic,P2_1/c,False,0.034388392499999476,-0.6844721249999992,6.0,-4.002183804356744,-3.950275928758466,-3.898455519745016,-3.84155785345476,-3.7775258636050983,-3.6611443429596555,-3.3320889902209156,-2.998472321496684,-2.65703755719987,-2.310748111408876,-1.9592439448934158,-1.602287885439016,-1.2397313585637502,-0.8714838846763655,-0.48991722817199523,-0.09078414719316896,0.3146259760604817
mp-27904,FeSbS,Monoclinic,P2_1/c,True,0.0,-0.5929361583333339,3.0,-1.7395052167608562,-1.7236602386160427,-1.7104231229028886,-1.6962046154275288,-1.6788879309887603,-1.6461302739696364,-1.5351452516112283,-1.419104010292048,-1.2962024852431648,-1.169785885602554,-1.0397752437320618,-0.9061385154739781,-0.7688739637246655,-0.6279995709510278,-0.4835494859205607,-0.34977258083818086,-0.14717647886568308
mp-1225096,Ga(MoS2)3,Orthorhombic,Imm2,False,0.07274495298837191,-1.0207725117499997,10.0,-10.20090122999364,-10.148278138063802,-10.100258511498826,-10.048632121043905,-9.988923728056136,-9.85306421522537,-9.400955981703618,-8.94383421286791,-8.480413901057982,-8.0098255675527,-7.531495403208421,-7.045030193862095,-6.550176096793976,-6.046761238597803,-5.534675924980233,-5.013853908500085,-4.484259882141263
mp-559694,Ga(MoS2)4,Trigonal,R3m,True,0.042478091529517314,-1.0760680567307692,13.0,-13.992782415039144,-13.930799666710413,-13.874358556589144,-13.812952030101629,-13.740843118593672,-13.567399667649884,-12.972564029727488,-12.371356621672977,-11.762085479415973,-11.14360245401382,-10.515145425263466,-9.876189119297706,-9.22639141434362,-8.565517059664995,-7.89341329566125,-7.209984361854896,-6.515175031250216
mp-556712,Ga2BiS4,Tetragonal,P4/nnc,True,0.0,-0.8864955742857126,7.0,-6.152937576261967,-6.084835504260078,-6.0075428404460975,-5.917951798337616,-5.822702214382551,-5.676511877371196,-5.3193872969944636,-4.958891398088044,-4.594231116705512,-4.224899595220444,-3.8505807763943305,-3.4710798373224243,-3.086297545892265,-2.6961969197343425,-2.300781807138801,-1.9000869874075692,-1.4436539994512145
mp-4152,Ga2CoS4,Tetragonal,I-4,True,0.07422922505952201,-0.6264255330952396,7.0,-4.30074366887422,-4.224671125595794,-4.1515870857014185,-4.075665205419989,-3.9931416315067265,-3.859085502702693,-3.5132991518837473,-3.163149618514801,-2.8076386254038486,-2.446009535165948,-2.077615669222493,-1.7025026565524453,-1.3211786133358228,-0.933729892436574,-0.537176458639637,-0.12813079762616475,0.2868618723648737
mp-20793,Ga2FeS4,Trigonal,P-3m1,True,0.09685555857142791,-0.8073708992857139,7.0,-5.565309177300001,-5.488673353413828,-5.4147648524173295,-5.337618448847944,-5.253850659466593,-5.117688004990813,-4.768581468345694,-4.414546894509952,-4.052293421952057,-3.6847748345960727,-3.311650200870699,-2.9327081149826544,-2.547830689069876,-2.1569653943048603,-1.7601015689502901,-1.3486032144669657,-0.9307836995835767
mp-4809,Ga2HgS4,Tetragonal,I-4,True,0.0,-0.8260695153571456,7.0,-5.616806995800836,-5.5199491560999965,-5.426260158695996,-5.262845203581002,-5.065136167416444,-4.817428493550313,-4.359584627829401,-3.8990648884666066,-3.4349984792255164,-2.9668173930782373,-2.49415789698174,-2.0167930386847424,-1.5345904202977163,-1.047484039396224,-0.555454942798681,-0.05851407190474589,0.44329902950377864
mp-6959,Ga2NiS4,Trigonal,P-3m1,True,0.04225467952380946,-0.8240876421428567,7.0,-5.6771904344591775,-5.598972651084489,-5.5231484599677705,-5.443621008968742,-5.357999715299168,-5.221072845025601,-4.872793013451227,-4.520665105301871,-4.163845271534987,-3.8017831244417435,-3.4341294410065792,-3.0606645239919423,-2.681265303383105,-2.2958719953388336,-1.8968883030489927,-1.4887569448733924,-1.074535550306642
mp-557672,Ga2Pb2S5,Orthorhombic,Pbca,True,0.012181712083330964,-0.9027086729166653,9.0,-7.930617003589612,-7.820087275787484,-7.713363930533484,-7.5863963115319715,-7.451469084167043,-7.252056530396491,-6.788210105720799,-6.319445322136568,-5.844838765976485,-5.363817161716195,-4.876026489790979,-4.381250391785851,-3.8793789769060414,-3.3703687680821393,-2.854226860007568,-2.330994267390043,-1.8007402658920846
mp-1196984,Ga2PbS4,Orthorhombic,Fddd,True,0.0,-0.9524106732142842,7.0,-6.568175999180707,-6.488099918251142,-6.410920098388168,-6.322684580440052,-6.228486846499116,-6.083090288299113,-5.726527326294281,-5.36639405109738,-5.0019316009695824,-4.632660065478326,-4.258283079565238,-3.878618257491963,-3.49357051286818,-3.103100790463307,-2.7072108657064238,-2.3059303357467957,-1.8993122179631412
mp-14280,Ga2Sn2S5,Orthorhombic,Pna2_1,True,0.0,-0.669351368784722,9.0,-5.914627337879088,-5.824446764107263,-5.710157352901187,-5.590844686758806,-5.464212926322558,-5.273506265971854,-4.818655935265312,-4.359084167451554,-3.8937929258648634,-3.422144676287827,-2.9437625976839907,-2.4584220401941135,-1.9660151858844852,-1.4665151405742218,-0.959939363262091,-0.44635167012753385,0.07416622600053913
mp-27255,Ga2TeS2,Tetragonal,I4_1md,True,0.0,-0.6861058871250009,5.0,-3.3725147783565532,-3.315925746737073,-3.263720118526045,-3.210969853252669,-3.1351346938797846,-3.0258438636873346,-2.8089976735121427,-2.588428464449213,-2.3637326299063233,-2.1346557694356916,-1.8429610380602526,-1.5622866216714844,-1.2777478645466598,-0.9893293072589016,-0.6970419160004084,-0.4009163075283766,-0.1009980505972905
mp-531297,Ga4GeS4,Cubic,Pa-3,False,0.020466360833332864,-0.7815687513888889,9.0,-6.894103957609566,-6.775361571663902,-6.663843716164999,-6.551186110937862,-6.432881173866975,-6.262701160688442,-5.880090178610258,-5.492260272768899,-5.0982051150543874,-4.66897966231009,-4.2293503800207795,-3.782425260706857,-3.3281270611353406,-2.866457388965019,-2.397460132173247,-1.9212156898280046,-1.437832203736793
mp-5342,GaAgS2,Tetragonal,I-42d,True,0.0,-0.6195302464062493,4.0,-2.423805118395186,-2.383028449029459,-2.34486800127633,-2.3057331072821423,-2.2636699155654822,-2.195715690846587,-2.021668051334223,-1.8451720272863676,-1.665736831682862,-1.4767477921729397,-1.2810019695423218,-1.0816567902572105,-0.8786992283972417,-0.6721484239091353,-0.46204196251546126,-0.24842962652699807,-0.03137295256623318
mp-5238,GaCuS2,Tetragonal,I-42d,True,0.0,-0.6983747601562484,4.0,-2.722826516032889,-2.6781995795645015,-2.6362769613040378,-2.593460738384108,-2.5478022414759653,-2.4763501360357116,-2.2989165502995803,-2.119154805969814,-1.9365730795957194,-1.750823994261054,-1.5574278319776376,-1.3546614678306295,-1.1483262511911612,-0.938438212714348,-0.7250328652616993,-0.5081579182829241,-0.287872835539444
mp-1226384,Gd(CuS)3,Trigonal,R-3,False,9.493919641556658e-05,-0.9917023304910718,7.0,-6.814872115835059,-6.764354997306228,-6.719691076155334,-6.673795781943911,-6.622842039164656,-6.531869448288429,-6.280261624255665,-6.023271806458719,-5.759988777870383,-5.489718605152975,-5.199213169089448,-4.883415232928334,-4.557171411061814,-4.217001180673675,-3.8693430690197133,-3.5143562270658304,-3.1522144163478867
mp-22563,Gd(LuS2)3,Monoclinic,P2_1/m,True,0.022972630249996406,-2.368438178000001,10.0,-23.586844707027105,-23.522686760716425,-23.462183945832706,-23.397240040479765,-23.323360113834596,-23.172377624116905,-22.704062307370453,-22.22950735798922,-21.74726401228869,-21.25628763478761,-20.755810603832607,-20.2452572934868,-19.72159000861815,-19.180924381650303,-18.62933613571232,-18.066650198157035,-17.472040465471473
mp-677075,Gd2CdS4,Tetragonal,I-42d,False,0.0781854882142845,-1.8108986530357112,7.0,-12.448522931438625,-12.363225791866297,-12.279687949065591,-12.182327138655987,-12.078152166355235,-11.921719137790438,-11.55294128390452,-11.119571196320749,-10.641924791763282,-10.158786294120944,-9.66969869160272,-9.174360408958922,-8.667365689746891,-8.141519962334536,-7.609463236073308,-7.071272783916992,-6.527054481201517
mp-1195809,Gd2HfS5,Orthorhombic,Pnma,True,0.0,-2.1468838039453146,8.0,-17.02879736613363,-16.957656465038674,-16.88851330747466,-16.814933824148746,-16.733400009978606,-16.587287322010035,-16.176574475957867,-15.760669478132744,-15.338521313648616,-14.90940465397227,-14.472813708771746,-14.028418256615552,-13.570796070091633,-13.092750625756114,-12.606919151332324,-12.113387737844878,-11.612270648879221
mp-674348,Gd2MnS4,Tetragonal,I-42d,False,0.08298157107142501,-1.9100312401046804,7.0,-13.12673758817278,-13.037079116558031,-12.94941002929329,-12.857675967890131,-12.758580509274276,-12.606555387408834,-12.240945869304504,-11.867796509065787,-11.488166344109162,-11.101510168878466,-10.706801971219924,-10.301975134685755,-9.876928872517688,-9.429833177523708,-8.97498634790846,-8.512552716790516,-8.042712782504196
mp-561122,Gd2SnS5,Orthorhombic,Pbam,True,0.0,-1.6367756836328162,8.0,-12.876193479025634,-12.786376280732144,-12.684419913496153,-12.577247824737263,-12.462266505408795,-12.282954019179346,-11.839353340456809,-11.390926369939546,-10.93666147710178,-10.475863389895757,-10.008055338044452,-9.532926792296498,-9.045074180989442,-8.537316527137413,-8.02230349563013,-7.500135687519673,-6.970932548544166
mp-1200036,Gd2ZrS5,Orthorhombic,Pnma,True,0.07219653968749817,-2.197476357500003,8.0,-17.371426322691576,-17.28502650735011,-17.200850377395835,-17.112469045688567,-17.016341705674254,-16.855814794343765,-16.4308255701906,-16.00073747301247,-15.562150936334998,-15.115720120664715,-14.662244101711023,-14.201383330167618,-13.727696922872855,-13.233964518480596,-12.732797433950834,-12.224249630961653,-11.708402207321441
mp-1200532,Gd3InS6,Orthorhombic,Pnnm,True,0.0,-1.9458706859374986,10.0,-19.120368485932087,-18.987289947104834,-18.854474302569223,-18.716211193516628,-18.56813524294067,-18.342246774376918,-17.79850208136513,-17.24819231653111,-16.690060455839006,-16.123241166289812,-15.547130582254422,-14.961335489569791,-14.35779772360084,-13.725766564488495,-13.084230623375493,-12.433339230371562,-11.77326643742833
mp-1224776,Gd3Sc2S7,Monoclinic,C2/m,False,0.0,-2.276704729557293,12.0,-26.935417477668274,-26.79081609242907,-26.650630714101545,-26.50471637959736,-26.347506917174243,-26.099320733419695,-25.479847102092553,-24.852051999596604,-24.214298272416613,-23.565429264229916,-22.904609334571475,-22.23125997774378,-21.5371620880021,-20.80648305046617,-20.06231898759365,-19.291164274041392,-18.50556969058425
mp-1213337,Gd3ScS6,Orthorhombic,Pnnm,False,0.0,-2.3053985911874975,10.0,-22.66231667336665,-22.522210802529663,-22.385259467172066,-22.24318299719332,-22.09144707741013,-21.86190382179182,-21.314386188644676,-20.760082723971728,-20.19764519785018,-19.62612121711625,-19.044824001698167,-18.453285714434482,-17.843371494830674,-17.20178825892961,-16.54957053174666,-15.880028238302671,-15.199511520096856
mp-1196638,Gd4(GeS4)3,Trigonal,R3c,True,0.09732383095394592,-1.5444262963157889,19.0,-29.03119675652671,-28.873758825650313,-28.722588440774697,-28.562574532382975,-28.385399668119092,-28.055205085595396,-27.091905255104123,-26.117980158363615,-25.13080369254139,-24.043655080901427,-22.930714024403187,-21.801135680737588,-20.64404950185936,-19.44506124938277,-18.229460353557137,-16.99744648707469,-15.749276969361759
mp-1199792,Gd4(SiS4)3,Monoclinic,P2_1/c,True,0.06853643921052388,-1.7377294889473667,19.0,-32.696678139841836,-32.54036255697047,-32.391337477036195,-32.23403787394858,-32.05992866493956,-31.73305159029031,-30.77329002737706,-29.803176815875354,-28.8201387109099,-27.822410110124114,-26.808757956017594,-25.778372126704134,-24.720304341848447,-23.60619964378204,-22.396695962521008,-21.17085082430995,-19.92891532999201
mp-676156,Gd5AgS8,Tetragonal,I-4,False,0.028849979910702928,-2.0679653798214344,14.0,-28.437972954465412,-28.251998011375576,-28.071243480764572,-27.883691851542494,-27.682800026226367,-27.37744080061721,-26.647241641938482,-25.907050636478665,-25.155038095169598,-24.38362451533032,-23.59489115761987,-22.79151724703766,-21.960140615156064,-21.082894894271845,-20.19145280661698,-19.286071504721825,-18.36704669013141