,pretty_formula,crystal_system,spacegroup,experimentally_observed,"energy_above_hull, eV/atom",Ef,total_atoms,Gf_400,Gf_500,Gf_600,Gf_700,Gf_800,Gf_900,Gf_1000,Gf_1100,Gf_1200,Gf_1300,Gf_1400,Gf_1500,Gf_1600,Gf_1700,Gf_1800,Gf_1900,Gf_2000
mp-1025519,RbCu4S3,Tetragonal,P4/mmm,True,0.0,-0.5885333443749841,8.0,-4.491922584517905,-4.413389315254203,-4.342042160770861,-4.269660245535722,-4.19183734349947,-4.07329316210952,-3.771552149577989,-3.4093533999493566,-3.0407808934145315,-2.6650346784419057,-2.264549318122331,-1.8326474904387329,-1.392642004513231,-0.9446317714254562,-0.4887505209456826,-0.02514238420838666,0.44602759010485116
mp-7046,RbDyS2,Trigonal,R-3m,True,0.0,-2.0947867735416645,4.0,-8.133146037772011,-8.050680387019101,-7.969547856878633,-7.886449016476794,-7.799608280383886,-7.686168629234537,-7.444307740314054,-7.145264570397491,-6.8435568830165865,-6.538727439618572,-6.230425661459714,-5.918371134927442,-5.602339402272612,-5.2798984452308195,-4.946416729972379,-4.608805208938129,-4.267156511666569
mp-9367,RbErS2,Trigonal,R-3m,True,0.0,-2.096108655624998,4.0,-8.141893541070498,-8.060205305678817,-7.979718564221857,-7.897135958686871,-7.810690195088425,-7.697535654797013,-7.455874889430744,-7.156997640860798,-6.855503550631037,-6.551025549645091,-6.243308410768279,-5.932174327010823,-5.617496265093706,-5.299181430466053,-4.976594765434362,-4.6395036249891,-4.298986802321137
mp-20584,RbEuS2,Trigonal,R-3m,True,0.008869452916663967,-1.7660958293750024,4.0,-6.821010829900816,-6.739364781832855,-6.659147205986397,-6.57709909227842,-6.4914977132364236,-6.3795461624659655,-6.139495703820213,-5.842477505298762,-5.541234961360437,-5.237187809148178,-4.9301658088310285,-4.620070958570274,-4.30685499380742,-3.9905018158510543,-3.566217171277767,-3.1462226825807473,-2.7237798656538743
mp-3787,RbFe2S3,Orthorhombic,Cmcm,True,0.0,-0.9356723574999991,6.0,-5.536882410912824,-5.490854383106917,-5.446649843029024,-5.398509155691424,-5.343053805881635,-5.24526188065773,-4.962311281137077,-4.618359504512624,-4.2628761017149746,-3.902358196725631,-3.536477361445564,-3.165025961930505,-2.7878756340939184,-2.4049561087399542,-2.0162377407182195,-1.6044018262859758,-1.1860022965364685
mp-5372,RbFeS2,Monoclinic,C2/c,True,0.0,-1.0078782506249997,4.0,-3.9321426043037704,-3.8869106143693157,-3.842760928858259,-3.7960458762376157,-3.744672723334514,-3.665445537999216,-3.456104623831996,-3.188468302275994,-2.9147026759830155,-2.637964539669717,-2.3580276862563494,-2.0747474745301986,-1.7880331462809087,-1.4978323277484051,-1.2041224916843296,-0.8982391124759488,-0.5884595115827729
mp-558706,RbGa3S5,Monoclinic,P2_1/c,True,0.0,-1.1435252880555558,9.0,-10.099312349756502,-9.967286406143188,-9.838846085374419,-9.706878078928819,-9.567548484537486,-9.364097350857701,-8.8747727442621,-8.3265825330721,-7.773575579103632,-7.215041798001941,-6.6505359643153845,-6.079779533796989,-5.502615976277987,-4.918970721772967,-4.328830136364694,-3.73221554258075,-3.1291848153477773
mp-561407,RbGaS2,Monoclinic,C2/c,True,0.0,-1.2954157359374996,4.0,-5.018403335025157,-4.942379640478967,-4.867955429192263,-4.791870654651494,-4.712389115787225,-4.606698359747017,-4.373033067495501,-4.082724438125193,-3.7904156432623495,-3.4957831438929983,-3.198620425117519,-2.8987973557506646,-2.5962376876095457,-2.2909014841004813,-1.9827786551415194,-1.6718723436694365,-1.3582036655159264
mp-7045,RbGdS2,Trigonal,R-3m,True,0.0,-2.0964097131249986,4.0,-8.172957332926693,-8.097985166938793,-8.0243388665496,-7.948614321401449,-7.868996561704372,-7.762619240218202,-7.527677653547311,-7.235472944298748,-6.9406182276133075,-6.642751616547284,-6.341618920396529,-6.037053732907132,-5.7263420901891,-5.405880807475461,-5.081988239520246,-4.754701731467829,-4.424074528496437
mp-9366,RbHoS2,Trigonal,R-3m,True,0.0,-2.093234639374999,4.0,-8.124747913538966,-8.041890071366815,-7.960359131223906,-7.876882609430291,-7.789725341347067,-7.676018906872997,-7.433905744655261,-7.134600973566646,-6.832621320708355,-6.5275095475276235,-6.218914038850182,-5.906560599646658,-5.590221662876312,-5.269702863796011,-4.937868652407749,-4.598736267103556,-4.255894217610555
mp-542654,RbIn3S5,Monoclinic,P2/m,True,0.0,-0.9942647818518516,9.0,-8.635232425267906,-8.499157790032314,-8.358003181952814,-8.211940362726205,-8.057334424745967,-7.837596427707361,-7.3311174653966145,-6.764989357008339,-6.193326259482056,-5.615486492878205,-5.0310745804107455,-4.439849289331894,-3.841700728846881,-3.236579203303087,-2.624502171699284,-2.0055220494790476,-1.3797091487354223
mp-20938,RbIn5S8,Monoclinic,C2/m,True,0.000228936815483749,-0.9356088757738082,14.0,-12.649618747851203,-12.44831548035167,-12.238141315800991,-12.02027146736691,-11.789105989351714,-11.454222450319023,-10.674120681072125,-9.831625137283346,-8.98029919616426,-8.119160235378,-7.2476072333635635,-6.365275418644238,-5.472005711355372,-4.567730365341152,-3.652484024375717,-2.726358012104125,-1.7894676911586416
mp-601861,RbInS2,Monoclinic,C2/c,True,0.0,-1.192810585416665,4.0,-4.60842392379468,-4.541222243808883,-4.472731515186423,-4.4021200481531375,-4.327717973193719,-4.226769841135057,-3.9975580087463145,-3.7114416587444,-3.4230857277967726,-3.132189478361189,-2.8385629784265616,-2.5420885339740416,-2.242705443278737,-1.9403820611912375,-1.6351186619349187,-1.3269287527518898,-1.0158375951959826
mp-9361,RbLaS2,Trigonal,R-3m,True,0.0,-2.140519784375,4.0,-8.41473492593903,-8.357229128204146,-8.30082429064226,-8.242210618074221,-8.179847794801383,-8.090796923446243,-7.873191114781181,-7.598271398442319,-7.318262953621856,-7.029107982094542,-6.736805078563288,-6.441266605494707,-6.142457771927241,-5.840369734183208,-5.5350234950966515,-5.226448108367679,-4.914686454869184
mp-8751,RbLiS,Tetragonal,P4/nmm,True,0.0,-1.3446010244444437,3.0,-3.8283528918156104,-3.759696632402899,-3.6888599263582598,-3.6167951580845026,-3.5421421366696926,-3.453207908441227,-3.2881212488010307,-3.066269814466011,-2.8424769957120617,-2.6165506642671974,-2.3883735045635355,-2.1578854888189705,-1.925061042027595,-1.617441595897132,-1.287373057499476,-0.9554353349518605,-0.6216339008227223
mp-9370,RbLuS2,Trigonal,R-3m,True,0.0,-2.0848504622916675,4.0,-8.184657251706453,-8.125510975572107,-8.067949672669783,-8.0086314184738,-7.945746425346867,-7.856409690299214,-7.638783344158149,-7.364121890156725,-7.086991804061742,-6.806991814569229,-6.523834565197976,-6.237309083181143,-5.94725931518478,-5.653561373742015,-5.356123290758766,-5.054866331159687,-4.742834360426677
mp-8799,RbNaS,Tetragonal,P4/nmm,True,0.0,-1.2117971054597705,3.0,-3.400196293775749,-3.319151499896104,-3.239458414641828,-3.1585009920897704,-3.0749283692027944,-2.977073503071631,-2.803064132667669,-2.5722692589582183,-2.3153157649900726,-1.995104231202442,-1.6732730553507578,-1.3497114245567854,-1.0243491973016932,-0.6971442430814552,-0.3680799255674394,-0.03714746033399852,0.29564664361989834
mp-9363,RbNdS2,Trigonal,R-3m,True,0.0,-2.067003185,4.0,-8.052364766650532,-7.97735135515143,-7.903222289843875,-7.826499873802336,-7.7452675670445945,-7.636546051402355,-7.398413506829736,-7.102045667839261,-6.799980715644172,-6.492619576173233,-6.175981054524749,-5.8550363305981,-5.529819017846918,-5.200383494856052,-4.8668077681388695,-4.529167530769479,-4.187552302994765
mp-9362,RbPrS2,Trigonal,R-3m,True,0.0,-2.055441593541666,4.0,-7.9977328489963435,-7.9207554535426485,-7.844766047333828,-7.766279678430612,-7.683384989003454,-7.573107843036721,-7.33354507623413,-7.034955182086285,-6.731084819808192,-6.389670770642908,-6.042999653338532,-5.692451415996754,-5.338033761307875,-4.979776193523944,-4.617730808395001,-4.251958788967686,-3.8825268540171542
mp-10621,RbSbS2,Triclinic,P-1,True,0.0,-0.9648460499999976,4.0,-3.7528513213725763,-3.706137826736864,-3.661101547650631,-3.614324900159274,-3.5639307286408375,-3.4869697714124896,-3.2596701799265095,-2.974315632935456,-2.6865059274477767,-2.395955872379224,-2.1024910821767095,-1.8060094092793832,-1.5064594798371562,-1.2038189765754108,-0.8980995744533926,-0.6121851750750267,-0.25830345487728934
mp-9364,RbSmS2,Trigonal,R-3m,True,0.0,-2.0802487268750003,4.0,-8.106043193911306,-8.029695840926527,-7.952996372507136,-7.872503366796265,-7.786382161823822,-7.671762264627503,-7.426843117533813,-7.1229258631498,-6.81436450898295,-6.499049746210507,-6.175886838965864,-5.845349895064654,-5.5104408650077215,-5.171223455254711,-4.827776708749525,-4.48018564644107,-4.12854082500677
mp-557059,RbSnS4,Orthorhombic,Pbcn,True,0.0,-0.9101220046875002,6.0,-5.36454517026265,-5.306671767741896,-5.235030828437574,-5.1587468962498715,-5.076435548312271,-4.943197688701028,-4.577593816864865,-4.154920985368026,-3.7295292965221627,-3.3008966485223814,-2.8686826943185206,-2.4326647717235854,-1.9927077798525694,-1.548733676280623,-1.100709188350482,-0.6486291843772509,-0.19250875521994182
mp-9365,RbTbS2,Trigonal,R-3m,True,0.0,-2.096145767291665,4.0,-8.146733930302515,-8.066086535659183,-7.986672764297105,-7.905040830054074,-7.8193063222944055,-7.7065521086818,-7.4649330650298324,-7.165709913154754,-6.863455347406567,-6.557782606508762,-6.248417807577066,-5.935157232858366,-5.616624950281089,-5.287920164050642,-4.953209599134041,-4.614568223104021,-4.272076228332667
mp-16318,RbTiS2,Trigonal,R3m,True,0.0,-1.5196070389583332,4.0,-5.914655492511648,-5.853380458190426,-5.793484147425107,-5.731607016370951,-5.6659796981814585,-5.573753464935527,-5.353094593182597,-5.075219238225988,-4.793386936930084,-4.506406657924579,-4.216608031824706,-3.923818433793354,-3.6279170491347017,-3.3288141925894763,-3.026450025410125,-2.720774832576234,-2.407052513771907
mp-1209171,RbTlS2,Monoclinic,C2/c,False,0.0,-0.8785714695833358,4.0,-3.3533888715048783,-3.292554469708783,-3.2302030045587102,-3.1597309046408664,-3.0854018652427637,-2.9844573278996873,-2.7551755036586716,-2.4689249031114233,-2.1803766815085996,-1.8892332105995573,-1.595308704095343,-1.2984906501297715,-0.9987193834084902,-0.695968440934748,-0.33771179750714175,0.06790935139052223,0.47603997791950015
mp-9368,RbTmS2,Trigonal,R-3m,True,0.0,-2.0922416606250014,4.0,-8.121414992392646,-8.03891796620736,-7.957937508838903,-7.875139987205857,-7.788688666477071,-7.675642576413976,-7.434160738552282,-7.1355277126105054,-6.8343576501599745,-6.530304210714984,-6.223143260056849,-5.912732229833922,-5.5989855439885154,-5.281852901621618,-4.961317994068075,-4.62943557850522,-4.292257760037691
mp-1104630,RbV5S8,Monoclinic,C2/m,True,0.0658018773214275,-1.2813157898214282,14.0,-17.692208084528655,-17.573414506936725,-17.46012532378973,-17.340741741933204,-17.208969407212138,-16.973805487091557,-16.293283418634786,-15.549849360369507,-14.796729849583992,-14.032631334781408,-13.25665222954611,-12.468163472615402,-11.666746876491327,-10.852122226758748,-10.0241116989325,-9.182588966245667,-8.327462105223844
mp-999265,RbYS2,Trigonal,R-3m,True,0.0,-2.0911093881249982,4.0,-8.223380357274733,-8.167561357412968,-8.113142846148307,-8.056748696747473,-7.996561866559441,-7.909718081205108,-7.694413673719377,-7.421948750278764,-7.146940571746199,-6.869046943358105,-6.58804269446527,-6.303783183854975,-6.016180762608469,-5.725182020535139,-5.429302026904225,-5.121961554335876,-4.811135286573895
mp-1219814,Re3PbS6,Monoclinic,Cc,False,0.03484251287499873,-0.7980274905000002,10.0,-8.152844795897234,-8.158474822870001,-8.16800561530609,-8.164939645406877,-8.152946982090224,-8.064111899764898,-7.658420748456108,-7.247194737275144,-6.829210007963194,-6.403681032672324,-5.970096188090885,-5.528117190874092,-5.077560675578452,-4.6183117724770355,-4.150338519566489,-3.6736378916681716,-3.188257496208628
mp-1219545,Re4(As2S)3,Trigonal,R3m,False,0.0,-0.39700287711537807,13.0,-5.249895992878147,-5.257743149911073,-5.283407428387204,-5.310958132752355,-5.3318526768988574,-5.308454708867639,-5.1185881171059915,-4.916584092155796,-4.701028433329579,-4.471076147615667,-4.226425808183029,-3.5619301792014646,-2.8523059563308095,-2.1324388920996107,-1.4022772788842808,-0.6617999792057141,0.08893578121893952
mp-1209063,Re4As5S4,Cubic,F-43m,False,0.0009126011153792746,-0.4831281321153835,13.0,-6.360565686879886,-6.359239468395831,-6.37321910017293,-6.387649701550508,-6.394536958172978,-6.3456314694208595,-6.079170659524211,-5.801620247708117,-5.511505920314187,-5.2079282717277415,-4.890506588181971,-4.22153054113795,-3.5132133283024705,-2.7945926429202466,-2.0656115952150387,-1.3262459384161396,-0.5765487525185478
mp-5222,ReTeS,Cubic,F-43m,True,0.0,-0.6834833147222253,3.0,-2.0697204816228565,-2.0687669184069537,-2.071030638776257,-2.0731690590038143,-2.0534861846849175,-2.012995700484531,-1.9176234487061707,-1.8193165512685874,-1.7178608278408474,-1.6131221902608246,-1.4469266302104682,-1.2929421605357496,-1.1362968570573173,-0.9769651721596802,-0.8149444613264034,-0.6502394137287721,-0.48286793910162196
mp-15652,Rh3(PbS)2,Trigonal,R-3m,True,0.0,-0.5089669764285674,7.0,-3.5085499707902015,-3.482606755698154,-3.4637013780835386,-3.4270739811939595,-3.3846512336274106,-3.312459935937671,-3.1297147648882504,-2.93976244590561,-2.741985071803443,-2.5360426502711713,-2.3217403864426878,-2.0989974647718874,-1.8678079318943084,-1.6282021734251035,-1.3802679885276063,-1.124098196613609,-0.8598173287686279
mp-1219512,RuRhS4,Monoclinic,P2_1/c,False,0.007357494583333235,-0.5905996833072914,6.0,-3.5513950559900183,-3.5290747920260905,-3.5085697243459117,-3.4852260893407303,-3.4564499497117307,-3.377045790402665,-3.087044805788925,-2.793989475185027,-2.4970410114379407,-2.1956451833962394,-1.8894295146632354,-1.5781485415801955,-1.2616526532346528,-0.939839969299495,-0.6126585613678586,-0.2800815327136448,0.0578874265399989
mp-11609,Sb(MoS)2,Monoclinic,P2_1/m,True,0.0,-0.5972804521249998,5.0,-3.0367745732993088,-3.0383653540727593,-3.044760329051158,-3.0506977271320013,-3.0533014877853577,-3.0290537129769755,-2.8755114477510704,-2.717132000814189,-2.554304634932043,-2.386689962353123,-2.214081920087202,-2.0363502326068854,-1.8534223911552905,-1.6652549526811518,-1.4718314179675271,-1.2960134137731742,-1.0500002115006577
mp-1209066,Sb2AsS2,Monoclinic,C2/m,False,0.018359258999996797,-0.17308080145833743,5.0,-0.8607468695527074,-0.8480599995951466,-0.8400260049846799,-0.8314007339378695,-0.8192563043981229,-0.779984648874795,-0.5891725579684044,-0.392267131544747,-0.19064742352878206,0.01594200295780812,0.22759631283819282,0.511844859216593,0.8062146774602459,1.1048571030389231,1.4077269675528452,1.6690414647853018,2.0643465687086646
mp-30285,Sb2MoS,Monoclinic,C2/m,True,0.0,-0.3910514482031253,4.0,-1.5848498557435677,-1.5850070332493036,-1.5903663265480796,-1.5960809139799488,-1.5994662605375602,-1.5879881949666468,-1.477089254375287,-1.3602460490598052,-1.2389919408314674,-1.113164555624214,-0.9826957420146156,-0.8475667850997493,-0.707795233659982,-0.5634131830236973,-0.414474283586733,-0.3067639242308351,-0.06472826094937822
mp-504814,Sb2Pb2S5,Orthorhombic,Pnma,True,0.014895096388888085,-0.6426461402777769,9.0,-5.716093363720315,-5.667330459160608,-5.622529401729014,-5.557324460247785,-5.48371839099598,-5.344911858270615,-4.896943258547454,-4.441233063143196,-3.978771109154902,-3.5090608169176694,-3.0318124255598438,-2.546865543915237,-2.0541600298546747,-1.5536876449468693,-1.045499013967646,-0.57539666895903,0.032136993205924114
mp-1219513,Sb3AsS6,Orthorhombic,Pmc2_1,False,0.017707279750000637,-0.23627537493750025,10.0,-2.3952299232821828,-2.3666654063263954,-2.3424981050593567,-2.3143882364096005,-2.2776201098505133,-2.1638188610646365,-1.6669450329569013,-1.1611679457439479,-0.6481377630356562,-0.12717778219007414,0.40207851982979115,1.007335338168481,1.6262202005745152,2.2529434320269317,2.887475326912355,3.461165233672123,4.237344308418038
mp-621960,Sb4Pb4S11,Orthorhombic,Pbam,True,0.07477286447368225,-0.5637786243421039,19.0,-10.593099110215283,-10.493387433608676,-10.401068866561943,-10.267007361582365,-10.114969229900959,-9.820293304611244,-8.855205814309846,-7.87452026406071,-6.88006098374111,-5.870728277612058,-4.845868971056504,-3.805110834088527,-2.7482994921613297,-1.6753947515593455,-0.5864836794702484,0.42683746127016775,1.7156079258326642
mp-638022,Sb4Pb5S11,Monoclinic,P2_1/c,True,0.009317917062497294,-0.6608261335624988,20.0,-13.038379290027066,-12.923490522954477,-12.817435571619649,-12.661384276523176,-12.48653333351496,-12.167994961413072,-11.177864988215267,-10.170903777938811,-9.148926452849327,-8.110846488525208,-7.056026708716807,-5.984112358415125,-4.894968348957363,-3.788573781642107,-2.665035225285365,-1.6159691615296197,-0.290356642404781
mp-27907,Sb6Pb4S13,Triclinic,P1,True,0.020349895760871206,-0.6152734035869555,23.0,-14.074383070124084,-13.97303560151032,-13.88175343131783,-13.747636760301178,-13.592311490713993,-13.267957834999224,-12.122652912491697,-10.956819294373826,-9.773755595793752,-8.572158807940355,-7.351274957211373,-6.110690815461499,-4.850255565112093,-3.5699533345469727,-2.2699253595649296,-1.0875564011750924,0.5037388665709202
mp-630376,Sb6Pb6S17,Orthorhombic,P2_12_12,True,0.008129450948278105,-0.6245286678448261,29.0,-17.907104341874053,-17.74780403826149,-17.59932810664057,-17.387770183203596,-17.148660134133543,-16.68947496132043,-15.198628725481733,-13.684327965428672,-12.149231503818715,-10.591636528838805,-9.010526452126456,-7.405317204876077,-5.775760180123186,-4.121783228867969,-2.443509860709952,-0.8783300692786895,1.100317052640392
mp-22737,Sb8(PbS5)3,Monoclinic,C2/c,True,0.0,-0.6090688752884602,26.0,-15.927378148195729,-15.856385586596952,-15.796689806102957,-15.701321367722294,-15.58233538011229,-15.268980049340808,-13.985313786079715,-12.67742136867659,-11.350084905162085,-10.001784902335572,-8.631650589242174,-7.23921026460026,-5.824297381915358,-4.386901096656544,-2.9271973116053545,-1.6283390671375815,0.2118253406734496
mp-8630,SbIrS,Cubic,P2_13,True,0.0,-0.5930021242708344,3.0,-1.8049689015484316,-1.80590313638048,-1.810131350657195,-1.8143026692073578,-1.816551123018809,-1.8048313720376448,-1.7167892150372968,-1.625054781657926,-1.5302565095921241,-1.4322229991785682,-1.3308649184737744,-1.2261357132925692,-1.1180284643786456,-1.0065507898935753,-0.8917326928827238,-0.7964762040730555,-0.633015121679481
mp-1102833,SbOsS,Monoclinic,P2_1/c,True,0.0,-0.4177054308333332,3.0,-1.2912287466772252,-1.295344267606085,-1.3028698481993346,-1.3104618682994884,-1.3162709417829188,-1.3082766029285187,-1.2241443426898533,-1.1365208735956136,-1.0460491433658565,-0.9525743352277942,-0.8560133358211384,-0.7563341009881825,-0.6535338571947538,-0.5476295504772217,-0.43865740246415097,-0.3495235896046376,-0.1924681286967962
mp-1102284,SbPdS,Cubic,P2_13,True,0.0,-0.6207894949999991,3.0,-1.8491322437381128,-1.8398268213093463,-1.833565598566735,-1.8270412304214552,-1.8184292050826778,-1.7957277125788962,-1.6966177903216724,-1.5937575515755635,-1.487800308365959,-1.3785974625032704,-1.2660752285020074,-1.1502036350655316,-1.0309819815207355,-0.9084168495986571,-0.7825289144698626,-0.6687402877028976,-0.4843249291958376
mp-1102850,SbPtS,Cubic,P2_13,True,0.0,-0.6253694808333327,3.0,-1.8841680736501223,-1.8802840437944826,-1.879507435887526,-1.878517431243497,-1.8754843359189004,-1.8583980484979623,-1.7649354606701122,-1.6677515764083082,-1.5674965984463394,-1.4640177828724843,-1.3572413442012552,-1.247136274705476,-1.1337039465731085,-1.0169644151321222,-0.8969559748721494,-0.7965868751033502,-0.6281012783459721
mp-1103317,SbRhS,Cubic,P2_13,True,0.0,-0.6700157776041659,3.0,-2.010651872943206,-2.005090627828696,-2.0026046753163382,-1.9997913187082519,-1.9947617875205466,-1.9754717781298496,-1.8795722714622625,-1.7797037614632747,-1.6765071229918793,-1.5698296121363526,-1.4595943341196072,-1.345776499797668,-1.2283857728027616,-1.1074473906155227,-0.9830141577530505,-0.8780036514003049,-0.7046735076744657