,pretty_formula,crystal_system,spacegroup,experimentally_observed,"energy_above_hull, eV/atom",Ef,total_atoms,Gf_400,Gf_500,Gf_600,Gf_700,Gf_800,Gf_900,Gf_1000,Gf_1100,Gf_1200,Gf_1300,Gf_1400,Gf_1500,Gf_1600,Gf_1700,Gf_1800,Gf_1900,Gf_2000
mp-1025586,Te2W3S4,Trigonal,P3m1,False,0.08216155888889176,-0.5453147784722192,9.0,-5.198671518036138,-5.248554261021244,-5.306338323591323,-5.363027202946091,-5.373941269501525,-5.318513762566299,-5.048613518580932,-4.77189824781119,-4.487528487462958,-4.19493873524087,-3.777595772741016,-3.3827046023816987,-2.980435169612127,-2.5706854390377565,-2.15341431133222,-1.7286234168429697,-1.2963359100737897
mp-1030274,Te3Mo2S,Trigonal,P3m1,False,0.059528290833331,-0.41237586130208115,6.0,-2.5868838940241456,-2.610844900036793,-2.643874043204826,-2.678153337501502,-2.6498316553911816,-2.5845130879740146,-2.459938318146922,-2.3281448244471,-2.1888908037086665,-2.0420153501675555,-1.7131474384298366,-1.4233827459467818,-1.1281315934015144,-0.827324748028726,-0.5209196092963406,-0.2088944626309317,0.10876410294815209
mp-1028755,Te3W2S,Trigonal,P3m1,False,0.08280988916666487,-0.22533840505208028,6.0,-1.488388845942694,-1.5183071486427777,-1.5574884374384972,-1.5981437463580401,-1.576415729282568,-1.5178877487015643,-1.4002839046234197,-1.2756354570021315,-1.1437006026718155,-1.004322581590543,-0.6831490241139742,-0.40129426344298835,-0.11419764031563595,0.17817691225633325,0.47583261044472636,0.778747638740569,1.0868918780421257
mp-1025769,Te4Mo3S2,Hexagonal,P-6m2,False,0.06957708111111316,-0.45717119951388935,9.0,-4.336779043634198,-4.382730355696051,-4.441085241579285,-4.500654111475276,-4.475881551999408,-4.393385338916797,-4.196833033858411,-3.9902030186970032,-3.773037237074683,-3.5450282578988705,-3.0736186102911702,-2.6535585109519104,-2.2253656277741882,-1.7889265246276018,-1.34417004570032,-0.8910574005489948,-0.4295640678728816
mp-1026362,Te4W3S2,Hexagonal,P-6m2,False,0.09236573111111568,-0.27964817173610373,9.0,-2.770348093224264,-2.8241557916828484,-2.890659337373186,-2.958712670569054,-2.942751050011033,-2.869361158548246,-2.6821856834788607,-2.485193678800825,-2.277927088156261,-2.0600846990357784,-1.5991370241853833,-1.1898622639297969,-0.7728216162445207,-0.3479513936647436,0.08476048308097184,0.5252875093123741,0.9735889112066154
mp-1217334,TeMo2S3,Trigonal,P3m1,False,0.05371854250000041,-0.7472503805729147,6.0,-4.5468649576974975,-4.545253504202048,-4.5479156602151996,-4.549182996636157,-4.526089497604671,-4.457085810680442,-4.228138767902749,-3.9949745040765983,-3.756969809599875,-3.513699488922544,-3.2067887855007378,-2.9097601788793366,-2.6076327372151544,-2.3002988798131447,-1.9876869860863202,-1.6697504671284449,-1.3464582926398005
mp-1027412,TeMoS,Trigonal,P3m1,False,0.07723306166666788,-0.5592034759374988,3.0,-1.7456604261191457,-1.7572608512956287,-1.772196713138108,-1.7870964078646994,-1.7802556496264303,-1.752688123088265,-1.670320706984251,-1.5850943046499424,-1.496792662893336,-1.4052692563859086,-1.2523376396432102,-1.1116523519142794,-0.9683207404091014,-0.8222986017625837,-0.6735573806949633,-0.5220800013363265,-0.3678553533665774
mp-1217283,TePb2S,Trigonal,R-3m,False,0.022539062500000817,-0.6776172172916652,4.0,-2.585900191925289,-2.548009871800466,-2.514337058462102,-2.463609579159407,-2.389767244638256,-2.2938085571169413,-2.1416585121167677,-1.9853116242715205,-1.8246294929423428,-1.6595575328386367,-1.4319823005226633,-1.2156224495943828,-0.9956439975080436,-0.7720572745508356,-0.5448874292789281,-0.31416973397563375,-0.07994551486804369
mp-1028761,TeWS,Trigonal,P-3m1,False,0.0957034783333306,-0.4040416417708362,3.0,-1.2944803005687882,-1.3096695071490774,-1.328291574865488,-1.3469894099636017,-1.3440556173028444,-1.3204935172428496,-1.2422216970733984,-1.1611779508384443,-1.0771460253459857,-0.989981468128565,-0.8415071615765308,-0.7053869728137214,-0.5667427590775871,-0.425546899891569,-0.2817905321560348,-0.13547834504226675,0.013379006728628795
mp-557833,Ti(Ag4S3)2,Orthorhombic,Pna2_1,True,0.03404407891025496,-0.47438766427777634,15.0,-6.858564117857292,-6.758856837253613,-6.672641788951257,-6.584378257248561,-6.485624618051714,-6.305927711019685,-5.803627946301962,-5.288888461087264,-4.758401736630184,-4.15968254225638,-3.518442170261695,-2.860391260613145,-2.1856449812412606,-1.4944160614987432,-0.7869607507420682,-0.06355642030830921,0.6801925342609714
mp-1078058,Ti(CrS2)2,Monoclinic,C2/m,True,0.0,-1.2312391733333297,7.0,-8.601482813331714,-8.573237154554445,-8.54832616695933,-8.520639524809155,-8.486818619197642,-8.401200868909376,-8.103458016573036,-7.800798527781944,-7.490834271999011,-7.1719846495653705,-6.846278009108722,-6.513290476576457,-6.172689622986141,-5.824201123376147,-5.4675925198750495,-5.102664358484255,-4.724525882938927
mp-29091,Ti(CuS)4,Tetragonal,I-42m,True,0.0,-0.829498218148149,9.0,-7.3524292008240835,-7.301090659230258,-7.257104129038783,-7.21155602189204,-7.159645445833612,-7.054920787604418,-6.736616795444741,-6.4117029897462725,-6.07764223450144,-5.732704079495514,-5.361827037681794,-4.9582730115148586,-4.545306209800906,-4.122981098155918,-3.6913882039312504,-3.250633836958208,-2.796141473034048
mp-1025173,Ti(MoS2)2,Monoclinic,C2/m,False,0.09579953607142766,-1.1680078919047614,7.0,-8.1463121744784,-8.114876258745866,-8.08688487583201,-8.056325124469746,-8.01995033025038,-7.9322181379003585,-7.6329225888512795,-7.329398593221523,-7.019384464999055,-6.701421903327933,-6.377661555638772,-6.047799773820833,-5.711626427694593,-5.368983272518154,-5.01975393063981,-4.663848809697495,-4.296495306507159
mp-1188929,Ti(NbS2)3,Hexagonal,P6_322,True,0.0,-1.5396393073333328,10.0,-15.298090766903973,-15.237031920064602,-15.180312248804121,-15.119684212368515,-15.050676717837021,-14.905206137872021,-14.443134450834734,-13.975616000520601,-13.500007018840265,-13.014614064798668,-12.521427458391411,-12.020051912594381,-11.510226329674095,-10.991766399057896,-10.464553098577639,-9.928510852917345,-9.378878231829322
mp-1192454,Ti(NbS2)4,Hexagonal,P6_3/mmc,True,0.0,-1.52546407602564,13.0,-19.700753549907247,-19.61951268105744,-19.54353465060165,-19.462295821077642,-19.370075806719754,-19.17623519809885,-18.560685254756173,-17.938376952692483,-17.30626785885257,-16.66240037204734,-16.008585829087774,-15.344310356842534,-14.669237015691362,-13.983130554898036,-13.285842360584137,-12.577281854424815,-11.852678050498106
mp-540939,Ti(TlS)4,Monoclinic,P2_1/c,True,0.0,-0.9403987740740768,9.0,-8.204482626560644,-8.113500133926692,-8.016653090535172,-7.892250792414634,-7.759852610862018,-7.57348783638567,-7.172772623662105,-6.765028879464321,-6.348042834111114,-5.920457152379722,-5.484551902905675,-5.040164103446447,-4.5872341300881345,-4.125762554058976,-3.445676664901347,-2.5795520681920117,-1.7020732647580132
mp-14441,Ti(TlS2)2,Orthorhombic,Pbca,True,0.01410471642857214,-1.0042978257142876,7.0,-6.907649669436341,-6.851231653780846,-6.791604286920608,-6.716403421280816,-6.634568732662665,-6.5007817347877745,-6.155006443695196,-5.8047311612222305,-5.447814427298701,-5.082914021288387,-4.712286306536294,-4.335727132262875,-3.953121719897663,-3.5644071763078244,-3.0645036580179514,-2.469666082175209,-1.864862219746989
mp-1025269,Ti2CoS4,Monoclinic,C2/m,True,0.016245639206328377,-1.4144188595238114,7.0,-9.808367763836424,-9.759966770796902,-9.714112761734269,-9.66478039821504,-9.608139495440305,-9.499186642013797,-9.17758736198099,-8.850478607228418,-8.51409483104031,-8.165944411319082,-7.8104529605158115,-7.4475811203057365,-7.0777478738430215,-6.7009400766604195,-6.314078196211678,-5.913669002263557,-5.496743280759858
mp-3951,Ti2CuS4,Cubic,Fd-3m,True,0.0,-1.4372441602380956,7.0,-9.990988392822223,-9.94881001835494,-9.90962222013278,-9.86749915705344,-9.819257376970755,-9.71936799820811,-9.407587750697903,-9.091164484393715,-8.76646427925751,-8.431158232785414,-8.085682736306056,-7.728129747243236,-7.364154295805063,-6.993643740193097,-6.616525232838022,-6.232745456446445,-5.832865797573643
mp-9942,Ti2FeS4,Monoclinic,C2/m,True,0.024835269999994303,-1.4097805452380945,7.0,-9.78042080115991,-9.733099850570401,-9.688064703463406,-9.63915113971398,-9.582909344528918,-9.473493288488426,-9.150217145687208,-8.8208666735256,-8.479383740948311,-8.126987147166755,-7.768408251639326,-7.403350661269018,-7.031607355167907,-6.653026307177303,-6.267497358228685,-5.8662787938684815,-5.448169550530189
mp-1025263,Ti2NiS4,Monoclinic,C2/m,True,0.0,-1.4299662695238078,7.0,-9.915141993116208,-9.86587834923747,-9.818566778209538,-9.766911433229751,-9.708455399955747,-9.597914394316753,-9.27510422278556,-8.947299682509621,-8.610889654922625,-8.263588767603096,-7.910120088565159,-7.5501789332675395,-7.1835530986696545,-6.810083303599072,-6.42207375391447,-6.023861452061272,-5.608989595238899
mp-1025368,Ti2VS4,Monoclinic,C2/m,False,0.018362926190474305,-1.5734434952380962,7.0,-10.934996302405315,-10.890168690475733,-10.848130587267818,-10.802978953151008,-10.751547955298204,-10.648315967046516,-10.333045936911546,-10.012988824138478,-9.684517963702998,-9.345332436725641,-9.000139764762528,-8.648617643953322,-8.290537288368903,-7.925724906809375,-7.5540506480261005,-7.175407300337946,-6.780300283051407
mp-1410970,Ti2ZnS4,Cubic,Fd-3m,False,0.048718492142856284,-1.47338022952381,7.0,-10.231724486848545,-10.18611371749321,-10.143191923097824,-10.09616680663429,-10.03234255652234,-9.916363893199671,-9.588109845401604,-9.254933978996121,-8.894576680832255,-8.441735529206259,-7.9838417851156285,-7.520580399713751,-7.05173087851578,-6.577127721766086,-6.0966524789518886,-5.610210375558456,-5.108326523072414
mp-1217143,Ti3AgS6,Trigonal,R-3,False,0.003467773416690356,-1.4486130956666656,10.0,-14.446647922317911,-14.39912376342666,-14.355009101925976,-14.30615693082358,-14.248176998780288,-14.112987751319555,-13.66034441445768,-13.201196118744512,-12.730151518747075,-12.237500383295664,-11.73333584629479,-11.220487992539779,-10.698695724297156,-10.16777058527213,-9.627583188991224,-9.078034122236193,-8.50494598336483
mp-1217185,Ti3CoS6,Trigonal,R-3,False,0.0007883468888785217,-1.4894907195000016,10.0,-14.782645940203478,-14.716654385862405,-14.653716833238992,-14.585579522996039,-14.50721065329429,-14.351065540673417,-13.876822715290256,-13.395328701071865,-12.901059489477012,-12.390409425176806,-11.870184084424293,-11.340201684885209,-10.800779457063626,-10.251825332704335,-9.69020116749586,-9.112365562419054,-8.51060844235916
mp-686094,Ti3CuS6,Trigonal,P3m1,False,0.0021859589166730586,-1.485946756083332,10.0,-14.787973485453437,-14.732685463542312,-14.680895035617079,-14.624447939671729,-14.558959106519744,-14.416358382420446,-13.95641550341759,-13.4900878915053,-13.01198316482006,-12.5186583876267,-12.01292991505581,-11.492747280521694,-10.963663761582364,-10.425487792651415,-9.878087914394323,-9.321362640731767,-8.741132497160486
mp-1217178,Ti3FeS6,Trigonal,R-3,False,0.008529196499980074,-1.487947099499997,10.0,-14.787054325304513,-14.725973650357844,-14.667685796634462,-14.603798123105708,-14.52965919793803,-14.376881719647564,-13.904792868440381,-13.424887973757354,-12.929350442717713,-12.418285041301576,-11.898803092769295,-11.37046578001437,-10.832964329498793,-10.286067791275888,-9.729607394511934,-9.154793255967437,-8.555683451017341
mp-13993,Ti3NiS6,Trigonal,R-3,True,0.0,-1.493373888499996,10.0,-14.820518968184054,-14.753939507678968,-14.689819137765461,-14.619633590737156,-14.539724335211343,-14.382265815053188,-13.907086842846844,-13.425171787780295,-12.931151069461757,-12.421625282238457,-11.90369745792648,-11.376920487975056,-10.840980416693512,-10.295639039121443,-9.733141949352314,-9.15777798104563,-8.558349470342272
mp-1217186,Ti3Sn5S12,Monoclinic,Pm,False,0.013867728000003687,-1.090837701749998,20.0,-21.624393811448943,-21.496722974541598,-21.304805163611938,-21.09889764207605,-20.87466101209052,-20.49638819413687,-19.484062252570848,-18.460148375993857,-17.41820651747424,-16.354160568717234,-15.27473149204397,-14.179249975778596,-13.067307831812808,-11.93866391995687,-10.793180729636227,-9.630819044716503,-8.437464617440071
mp-1217134,Ti3VS4,Monoclinic,P2/m,False,0.06365131734374962,-1.5337013537499988,8.0,-12.112202702819317,-12.047880046961652,-11.987915086959124,-11.924985532551899,-11.855202336526748,-11.732627591157751,-11.396738379781645,-11.054550108823081,-10.700988340065955,-10.33285119421787,-9.957373462384393,-9.574193312002773,-9.183048385070705,-8.78373340030631,-8.376088259423689,-7.959975184452283,-7.521166831473771
mp-1217148,Ti3VS6,Trigonal,R-3,False,0.011204661999992815,-1.6085754544999993,10.0,-15.982703053485334,-15.91922329893244,-15.85904007084199,-15.794021908679706,-15.719801362578137,-15.568315533810328,-15.099340377003244,-14.623836423442604,-14.136418546278627,-13.633671793400541,-13.122683650166426,-12.602989388706456,-12.074258470441414,-11.536238180383446,-10.988740055518688,-10.431608715380086,-9.850608718215586
mp-1105097,Ti4CoS8,Monoclinic,C2/m,True,0.0,-1.518673714102565,13.0,-19.613502340193598,-19.530595802956732,-19.45125028517831,-19.364983606617407,-19.26556234839441,-19.062900554984942,-18.436689762657192,-17.801486067378754,-17.150006998782928,-16.477532868309513,-15.793249216013525,-15.096831835551203,-14.388496204776514,-13.668071331646306,-12.93236046008387,-12.177774022284147,-11.391861082073813
mp-30075,Ti4FeS8,Monoclinic,C2/m,True,0.007000732362631545,-1.5168841610256403,13.0,-19.56693567592585,-19.4781532532412,-19.392670669520605,-19.2998668628317,-19.193888784300572,-18.983807860379308,-18.34896427738534,-17.70456293680006,-17.04102878391725,-16.357352551485697,-15.663025526567745,-14.957466468047384,-14.240264849736498,-13.511110797900479,-12.76977692994036,-12.007425193830734,-11.213372803888014
mp-1104320,Ti4GaS8,Cubic,F-43m,True,0.0045242478846070355,-1.5457643885256402,13.0,-19.986009600736114,-19.893315517899442,-19.804438452862918,-19.709144968713602,-19.60193854868103,-19.392274098514577,-18.75998618189603,-18.11979257795616,-17.464595300963197,-16.789904749935317,-16.105231904114973,-15.410010032413624,-14.703843118670624,-13.986433726317763,-13.257566909922481,-12.517072286008869,-11.746010863265532
mp-1217215,Ti4MnS8,Trigonal,P-3m1,False,0.03222827824175223,-1.4988749516357198,13.0,-19.382068690718445,-19.305061285694787,-19.231163016417078,-19.149951815615324,-19.05581923202146,-18.858149694108608,-18.236256441000336,-17.603433196274747,-16.95451491714455,-16.2850700427378,-15.604000131143382,-14.90894128072813,-14.194775497821936,-13.466541926672255,-12.725665254950123,-11.972039357872696,-11.186784320668963
mp-1104366,Ti4NiS8,Monoclinic,C2/m,True,0.0,-1.521303844102565,13.0,-19.648738743962788,-19.565745144509055,-19.48571765338768,-19.397903581988558,-19.297442781888645,-19.09396842488903,-18.46732232968524,-17.832198437505777,-17.18146870613341,-16.510619696684046,-15.82913440477573,-15.136423297848207,-14.432070667560698,-13.715759385164851,-12.979676432988906,-12.228062475906441,-11.444978988999779
mp-1387289,Ti4ZnS8,Trigonal,R-3m,False,0.061531279230771396,-1.5090684648717938,13.0,-19.521572780422584,-19.447034353674134,-19.376198937367178,-19.297817392666186,-19.196790673910204,-18.99268095740879,-18.36539328412,-17.729700363992873,-17.05982566022551,-16.288238684651553,-15.507130625872424,-14.715901587022522,-13.914127568316795,-13.101485222423719,-12.277738875300045,-11.442697414859225,-10.577404230470776
mp-1217175,Ti5(CuS5)2,Triclinic,P-1,False,0.030914725294113765,-1.4362638789215676,17.0,-24.229597085643714,-24.120712176315664,-24.01831543721861,-23.908326765244276,-23.78317763905996,-23.529269023248364,-22.74612738378565,-21.95195799261952,-21.137734547848424,-20.29768521123332,-19.435062729233422,-18.545908592686835,-17.641431109359672,-16.721326071867125,-15.785389173305301,-14.833465610301516,-13.841937294907787
mp-1217205,Ti5CuS10,Triclinic,P-1,False,0.009470517812500745,-1.5231896826041655,16.0,-24.246402712518986,-24.152497535545947,-24.06310398804035,-23.965610966188756,-23.85323016672394,-23.612808891777107,-22.844142889614737,-22.065608726312007,-21.26829709635448,-20.44653699754436,-19.607904712616183,-18.750064926965244,-17.878367412849364,-16.992462757106246,-16.092102276870886,-15.177088148492146,-14.223759175349663
mp-1094043,Ti5InS8,Monoclinic,C2/m,False,0.0,-1.5854036766666602,14.0,-22.07627877645328,-21.98976504556984,-21.90574798772387,-21.815003272112552,-21.711377499133413,-21.503966297152118,-20.872366040476127,-20.231086939040086,-19.571604998961618,-18.888552460317705,-18.19398415478877,-17.487306259750262,-16.768104733426362,-16.03605894061112,-15.290934053140056,-14.532539485553158,-13.73720762903639
mp-1217196,Ti5MnS10,Trigonal,P-3m1,False,0.02739498008927832,-1.5191841937248558,16.0,-24.20081968371994,-24.110440534053343,-24.023677537873464,-23.927880207006595,-23.816238473144328,-23.575595492695726,-22.805277510895706,-22.02228782336291,-21.219702925484583,-20.391977223157458,-19.550392238272416,-18.692441645186765,-17.812905697580305,-16.91674461591256,-16.0053244760893,-15.078490984541801,-14.112623365440484
mp-1101049,Ti5TlS8,Monoclinic,C2/m,False,0.0,-1.5984360307142802,14.0,-22.288516946772,-22.21533644473039,-22.14442460100894,-22.060785203165196,-21.96419841639949,-21.763756759785917,-21.139052461909785,-20.50460506058054,-19.851896780499004,-19.17556297103377,-18.487662609587375,-17.78760705568796,-17.074983303990198,-16.34947590144085,-15.558323720450622,-14.709463863801233,-13.824058488963512
mp-675920,Ti6AgS12,Monoclinic,C2/m,False,0.0,-1.5285061779824616,19.0,-29.034619511098533,-28.957217710722446,-28.884746460959263,-28.802373492105538,-28.702103701701056,-28.448231719077064,-27.560551788583957,-26.661141756893166,-25.739334893095343,-24.78207886632684,-23.80660670189806,-22.81532121257588,-21.807656042676488,-20.78318596454124,-19.741605756400972,-18.6826714986797,-17.5779832065596
mp-676402,Ti8Cu3S16,Monoclinic,C2/m,False,0.027260308333340255,-1.447679077654321,27.0,-38.79470572259374,-38.621971180687034,-38.45922240299723,-38.284225024410006,-38.08502545440618,-37.67995450382775,-36.42830837469465,-35.159249760948704,-33.85835997882484,-32.51642425434885,-31.13951168911053,-29.721613307362308,-28.279490694428283,-26.812648077337258,-25.320749689850828,-23.803539242516948,-22.2232191728844
mp-531696,Ti9ZnS16,Monoclinic,Pc,False,0.013322525576950461,-1.6204785824999988,26.0,-41.92505234607135,-41.77216023888022,-41.62656740022716,-41.466691757032514,-41.27190458108777,-40.87118667938322,-39.6242092521435,-38.36034774465925,-37.04534399963491,-35.60631043556595,-34.14748536581113,-32.667659668764415,-31.165968761967186,-29.64174211285414,-28.094479353283816,-26.523766129736615,-24.886949624123062
mp-1216903,TiCrS2,Trigonal,P-3m1,False,0.09166749833333121,-1.1995160320833325,4.0,-4.755833850623557,-4.733342350208549,-4.713302278951355,-4.691948848668731,-4.667241147714472,-4.616139744949352,-4.458337579098286,-4.2973211065476615,-4.131172375433041,-3.958650605718529,-3.782033606492692,-3.601089676378024,-3.41563581484671,-3.225519114376951,-3.030608222514399,-2.830788129115044,-2.6212470744340646
mp-1247743,TiCrS4,Orthorhombic,Imma,False,0.06039684416666535,-1.2031260447222216,6.0,-7.201085651714893,-7.1719878089609885,-7.144280225972205,-7.113388944290852,-7.076794649616497,-6.989332919808902,-6.690995564883188,-6.389214166086818,-6.081760082921683,-5.767179462533495,-5.447602808263354,-5.122695523426665,-4.792206426918705,-4.455935177511705,-4.113722058023345,-3.765434455813132,-3.4062525133024977
mp-1105715,TiGeS3,Orthorhombic,Pnma,True,0.0,-1.1804682721666666,5.0,-5.92352265125678,-5.910720273036933,-5.90008540974546,-5.887518128907624,-5.870787029785175,-5.815830606529174,-5.6025275085783015,-5.386363701943344,-5.165296983359031,-4.909721757891388,-4.647040917309992,-4.380362513288569,-4.109565843050443,-3.834571706690949,-3.555329921000814,-3.2718099533357794,-2.979293419504277