,pretty_formula,crystal_system,spacegroup,experimentally_observed,"energy_above_hull, eV/atom",Ef,total_atoms,Gf_400,Gf_500,Gf_600,Gf_700,Gf_800,Gf_900,Gf_1000,Gf_1100,Gf_1200,Gf_1300,Gf_1400,Gf_1500,Gf_1600,Gf_1700,Gf_1800,Gf_1900,Gf_2000
mp-1224044,K2(NbS2)3,Orthorhombic,Amm2,False,0.0,-1.4977540385909085,11.0,-16.171327445436518,-16.043009694958144,-15.919409484939957,-15.791475663735437,-15.654326926058717,-15.439674795337933,-14.907284015112491,-14.275837277481823,-13.57266761493272,-12.862500934913509,-12.14469962149687,-11.418849587566942,-10.684689329094125,-9.942046575506168,-9.19083424342967,-8.431006304230134,-7.662545685231064
mp-541638,K2(ReS2)3,Monoclinic,C2/c,True,0.0,-1.0575424749545448,11.0,-11.377157963938316,-11.260245347599042,-11.147739342559985,-11.030613671507425,-10.903974591989089,-10.69951186239191,-10.176959133339308,-9.554983550472713,-8.860899490529317,-8.159426642374246,-7.449936717954975,-6.732015630155658,-6.005426749279472,-5.270016460503783,-4.525734991954373,-3.772558080037957,-3.0105246193268234
mp-1223710,K2(TaS2)3,Trigonal,R32,False,0.0,-1.4859930346818144,11.0,-16.011453254918884,-15.874913510896857,-15.742799033924651,-15.606145732520526,-15.460140705813815,-15.236542116606643,-14.69515512922922,-14.054693528696971,-13.342518331121092,-12.623374099699493,-11.896651202129267,-11.161975972085344,-10.419167747119715,-9.668113333200523,-8.908766067745166,-8.141101687160354,-7.365134211685572
mp-541353,K2(TcS2)3,Monoclinic,C2/c,True,0.0,-0.9950907067613612,11.0,-10.681682537866877,-10.563609639905613,-10.450241845238144,-10.332356991179957,-10.204912089282,-9.999484963433618,-9.475731531968233,-8.852247426820474,-8.156297276061952,-7.452551019892187,-6.7403368401762656,-6.019221994048738,-5.288926321730385,-4.54927755264897,-3.8002041498890833,-3.0416631941078442,-2.273668705544736
mp-7494,K2Ag4S3,Monoclinic,C2/m,True,0.0,-0.5987255784374983,9.0,-5.008178698687839,-4.879590775282651,-4.7589114264761685,-4.636857058210399,-4.508435038880282,-4.338005798549525,-4.004499374881645,-3.5704079083647144,-3.0633305536062867,-2.522993563506107,-1.9608882830639036,-1.3898314678202315,-0.809863509407629,-0.22108706746187679,0.37635291806267546,0.9823034979607144,1.5965844985026898
mp-4351,K2B2S7,Monoclinic,C2/c,True,0.0,-0.9718230045757562,11.0,-10.51871215693242,-10.424750077996645,-10.336057956995289,-10.243569095823814,-10.1423223840453,-9.953032817130168,-9.39562371248941,-8.740743352728757,-8.015555832158082,-7.284654913332718,-6.547321620528489,-5.8030750168601415,-5.051610586430936,-4.29273377541217,-3.5263528364930323,-2.7524144860253092,-1.9709239345889493
mp-18101,K2Cd3S4,Orthorhombic,Pnma,True,0.0,-1.0089438506944441,9.0,-8.708686144564831,-8.574230394365422,-8.442151789008797,-8.275500257782564,-8.100695305683203,-7.871887485591445,-7.428778975918068,-6.707043240672938,-5.797964981439824,-4.884698445107171,-3.966700463537947,-3.043619424132583,-2.115237129105587,-1.181410085841076,-0.24208579427682864,0.7027734995999779,1.6531456777160791
mp-5131,K2CoS2,Orthorhombic,Ibam,True,0.050563919666666735,-0.9124209762916664,5.0,-4.3423158273057885,-4.258932209265205,-4.177966922342041,-4.094819438114005,-4.006450976457446,-3.8901945488059053,-3.6656054382716903,-3.343639373004785,-2.9522660686910474,-2.556527284907564,-2.1558407343805435,-1.7502906827029703,-1.3403974593829808,-0.9262388837416946,-0.5048259737928298,-0.07274321477055423,0.3634933887516141
mp-541878,K2Ge2S5,Monoclinic,C2/c,True,0.0,-1.0395036432777767,9.0,-9.238940699758462,-9.1640477221953,-9.092830536933073,-9.01810950389628,-8.935974024956561,-8.789575015745333,-8.378708969851902,-7.870139157991835,-7.291361091719368,-6.6505904264320375,-5.997551393070392,-5.338532271246084,-4.673358911471279,-4.001940160872037,-3.3242520212257816,-2.640302341463176,-1.950135522913925
mp-1211986,K2Hg3S4,Orthorhombic,Pbcn,False,0.0,-0.7583353085555539,9.0,-6.186853098796457,-5.985002223120228,-5.788115422897762,-5.386440637470036,-4.891193972341385,-4.345420627228837,-3.5884341190932005,-2.7348507528004387,-1.8122147521398357,-0.8853935836712967,0.046162139325412355,0.9827978108666571,1.9247378473211452,2.872119522721544,3.825001555713282,4.783415481725964,5.747345401269559
mp-1211969,K2Hg6S7,Tetragonal,P-42_1m,False,0.0,-0.6134311058000023,15.0,-8.137873885571375,-7.809492215448114,-7.489622728913946,-6.761388751309848,-5.848595121722823,-4.84901586538472,-3.481511680572712,-2.016049819104751,-0.4793450454918755,1.0642795587673675,2.615748447866231,4.175642633389746,5.744342879417559,7.322080567080441,8.908960643062763,10.505036357367555,12.110283456444236
mp-28859,K2HgS2,Orthorhombic,Pbcm,True,0.0,-1.0268982659000003,5.0,-4.819633197713805,-4.712058151069075,-4.607081774454551,-4.4330350832112195,-4.226075027121632,-3.9927609222262612,-3.652708164608346,-3.2169657611658637,-2.713630908540252,-2.2079339966656617,-1.6995756838038645,-1.1883676543176058,-0.6741897236454797,-0.15696735582021937,0.36332734911098363,0.886711450195456,1.413174617316841
mp-29861,K2Mn3S4,Monoclinic,P2/c,True,0.010000870555552765,-1.233147261910918,9.0,-10.88496266852202,-10.788819467509056,-10.695743674074015,-10.597368935180828,-10.489199069449858,-10.325011514769862,-9.942804557754972,-9.453127549858698,-8.889494554741804,-8.317071530957776,-7.733608309281326,-7.133458153518543,-6.5023177749371435,-5.85613737424147,-5.199839317928854,-4.533647032480864,-3.8578065049659287
mp-8713,K2MnS2,Orthorhombic,Ibam,True,0.0,-1.3257643935215526,5.0,-6.419137101802374,-6.3376910974133285,-6.25821154042921,-6.176158015398652,-6.089116709809551,-5.973891019092962,-5.749657929216556,-5.426110795940831,-5.0333367625310546,-4.636665716252558,-4.2352313878654435,-3.827078347673271,-3.4073934536601005,-2.981464661437677,-2.5509244327674416,-2.115840695905801,-1.67630047682856
mp-29784,K2Mo9S11,Trigonal,R-3c,True,0.021014349318193126,-0.9012420310653511,22.0,-19.71007255665543,-19.601248208979726,-19.506528061776667,-19.405849921614845,-19.288399200931277,-19.027924903984932,-18.18335746100643,-17.232248813690596,-16.20055279194859,-15.15202550668161,-14.08538706209761,-12.999750725639764,-11.894526639479459,-10.7692909755364,-9.623757114350923,-8.457720027725934,-7.271040372609313
mp-17980,K2MoS4,Orthorhombic,Pnma,True,0.0,-1.1082305773214276,7.0,-7.630318382893591,-7.55794537435376,-7.48739592127861,-7.413341166553001,-7.332907550760205,-7.20078591549665,-6.856931985357118,-6.416368912155589,-5.906908078232624,-5.393576128578788,-4.875936780013717,-4.353696748732,-3.8266655967342533,-3.294713062902975,-2.7577694089604528,-2.2157864997659473,-1.6687479118524635
mp-574909,K2NbS7,Monoclinic,P2_1/c,True,0.002541339812499821,-1.1101318855749995,10.0,-10.98537157750868,-10.89656858622904,-10.807982886297577,-10.713092593798137,-10.608318982499071,-10.415172662508995,-9.85406699323282,-9.195954214511996,-8.468187967180846,-7.735489797029807,-6.997211790132118,-6.252919793318668,-5.5023335348911075,-4.745264040339386,-3.9816124978907474,-3.211318878687212,-2.434364976816486
mp-17228,K2Ni3S4,Orthorhombic,Fddd,True,0.0,-0.9442484082777756,9.0,-8.210169990934807,-8.096071619527848,-7.984611573458053,-7.866431635669031,-7.739280533316156,-7.557681934272118,-7.16121986386691,-6.664644326505279,-6.09558038755811,-5.518948371542498,-4.934242421820603,-4.341138909417257,-3.7394414015881523,-3.1290312800502313,-2.4871177952724146,-1.826964742705556,-1.1576422789781056
mp-9910,K2Pd3S4,Orthorhombic,Fddd,True,0.0,-0.8321201798611119,9.0,-7.21743339488999,-7.108401714159436,-7.004318562424643,-6.897066329977521,-6.782291862852015,-6.613856549810084,-6.231241809558918,-5.749191427920076,-5.19536156318043,-4.634703632773077,-4.066752200850974,-3.4912147313549493,-2.9079134472903014,-2.316717293207555,-1.7175520040032843,-1.0879649425222162,-0.4430924933038902
mp-1068941,K2PdS2,Orthorhombic,Immm,True,0.0,-1.0683258326249998,5.0,-5.088125152134405,-4.996285329475176,-4.907038994693486,-4.815928646780629,-4.720588149029032,-4.597848880494142,-4.367382204507995,-4.040279621620424,-3.6446756399720748,-3.2458286331214854,-2.8434672429548336,-2.437420773153927,-2.0275845856153545,-1.6138862172329205,-1.1962925859011442,-0.7673129319974894,-0.33199774732146636
mp-652663,K2PtS15,Monoclinic,Cc,True,0.011873945850698675,-0.33589066248263716,18.0,-6.021882060633965,-5.904627524702903,-5.7831320978593865,-5.647665198713872,-5.492745891153708,-5.151384821283411,-4.025191870099283,-2.8008987404565246,-1.5046173550852942,-0.20021696850250237,1.1135312647642408,2.437467896959731,3.772138667076213,5.117910883711762,6.47498438038464,7.843478195202845,9.223424269664097
mp-7928,K2PtS2,Orthorhombic,Immm,True,0.0,-1.1103009486249988,5.0,-5.297081168361101,-5.205108879228673,-5.1157933002363105,-5.024663456778379,-4.9293480299946335,-4.80667010749626,-4.576296906893159,-4.249316819443568,-3.853861243996528,-3.4551844083884475,-3.0530149545055014,-2.6471811495989632,-2.2375804284264937,-1.824153801478822,-1.4068858059695408,-0.9857718200177263,-0.5608325380450605
mp-27749,K2Sb4S7,Monoclinic,C2/c,True,0.0008730262500034058,-0.6402708804567396,13.0,-8.123065710206426,-8.0139032472086,-7.910439959859297,-7.801711727719636,-7.681586702102267,-7.469939024907274,-6.798535684545671,-6.021805296029459,-5.170759424334225,-4.310190222118612,-3.439574466417469,-2.558617489157239,-1.6671901550395845,-0.7652505076227314,0.14713397120555882,0.9784137084512744,2.079681398073909
mp-8965,K2Sn2S5,Monoclinic,C2/c,True,0.0,-1.0279416263333343,9.0,-8.968279517973688,-8.84851507520727,-8.703010453347275,-8.551267879966012,-8.391238186172838,-8.166304448038609,-7.676449716648613,-7.088630038797611,-6.430504682064075,-5.767021436374238,-5.097720566248993,-4.4223131631360335,-3.7406354418528487,-3.052604540969769,-2.3582006079863547,-1.6574418561386004,-0.9503726867562072
mp-1120733,K2SnS3,Triclinic,P-1,False,0.0,-1.1640854995000005,6.0,-6.779378539154639,-6.6925441344460825,-6.59354762384995,-6.490826397822892,-6.382669557880417,-6.234926829159053,-5.92747290502367,-5.523418487828636,-5.050780052896955,-4.574737421002368,-4.094973564781717,-3.611289141734998,-3.1235682249420726,-2.631747800220827,-2.135811696017793,-1.635764108522876,-1.1316310111156742
mp-29692,K2TeS3,Monoclinic,P2_1/c,True,0.0,-0.8749085730729173,6.0,-5.082355961132547,-5.00595476116421,-4.931775038248652,-4.8549008118522154,-4.7527992940775405,-4.604176094395511,-4.295132780814725,-3.889008070406863,-3.4139003165070543,-2.93503390640197,-2.394015427798154,-1.8643673602404753,-1.3311149904689543,-0.7941631749549476,-0.2534713860274511,0.2909841637480266,0.8391992660330789
mp-28766,K2TiS3,Monoclinic,C2/c,True,0.0,-1.6053072825555539,6.0,-9.424967499969329,-9.33844622283375,-9.253847930757374,-9.166316756177473,-9.073278453975359,-8.940508126289167,-8.647785114874713,-8.258084349686506,-7.7980210519666056,-7.331893040104964,-6.8619059586563385,-6.387807607163525,-5.909428164318662,-5.426645539399239,-4.939388630033523,-4.447599446579428,-3.9465446734078995
mp-1211879,K2WS4,Orthorhombic,Pnma,False,0.0,-1.134365110535715,7.0,-7.821035198359326,-7.750618397727319,-7.682122577030126,-7.6102333891800615,-7.532074165468799,-7.402325383187438,-7.060934475486491,-6.622921484888339,-6.1160977937335455,-5.6054921198737375,-5.090677508003356,-4.571370002191783,-4.0473936744671,-3.518634846600344,-2.9850434724939277,-2.4465931820483213,-1.9032893168377125
mp-1147664,K2Zn3S4,Orthorhombic,Ibam,False,0.0,-1.127634460972222,9.0,-9.776566345535134,-9.642893487486727,-9.514069661102887,-9.379247298650968,-9.205458435572588,-8.977013753265865,-8.533686943848375,-7.990464317886445,-7.319025456997,-6.395239537850328,-5.466725282758688,-4.533127969830904,-3.5942262919898837,-2.649882975202953,-1.7000393008246846,-0.7446637334254689,0.2162278275046603
mp-1147773,K2ZnS2,Orthorhombic,Ibam,False,0.0,-1.2525931666249988,5.0,-6.004616910176254,-5.9117267653677725,-5.821396942659769,-5.728259955035346,-5.620411395589492,-5.484832407589705,-5.241291778838148,-4.900961851466249,-4.473318274724669,-3.9605920085843422,-3.445206414317875,-2.926970066996418,-2.40576381848909,-1.8815131328286263,-1.354190110062218,-0.8237776911425474,-0.290286206185959
mp-560331,K2ZrS4,Orthorhombic,Pbca,True,0.0,-1.5548681086785712,7.0,-10.679398133579866,-10.587315077504163,-10.496902185174228,-10.40283992734971,-10.30223090671162,-10.149730726218255,-9.785257798965201,-9.323796928836707,-8.790821310890337,-8.252753662044935,-7.710479148050023,-7.16371795869712,-6.612282765278447,-6.056047452398628,-5.494943318210494,-4.928919118281698,-4.357958429145242
mp-17174,K3(Cu4S3)2,Monoclinic,C2/m,True,0.0019911864705859372,-0.6661432168676468,17.0,-10.698128715849371,-10.484344702181334,-10.286109334465918,-10.085908815238184,-9.874366051884945,-9.580603675569192,-8.962789391838008,-8.192327415479948,-7.310143250573667,-6.413068572379622,-5.465922173892775,-4.455322319542972,-3.427881784111925,-2.383790737579165,-1.323321631086138,-0.24676428995888244,0.8455433184052019
mp-1120730,K3(CuS)4,Orthorhombic,Pbam,False,0.0010947527272735513,-0.8458218151590906,11.0,-8.859615697848172,-8.701710649836361,-8.552509254115597,-8.401182880674842,-8.241953711816972,-8.027854719900006,-7.5978318683420945,-7.020029423580647,-6.336151563876411,-5.643646381473271,-4.924774120214858,-4.172748718066936,-3.4108169883549273,-2.6390357116544294,-1.8575281999902913,-1.0664298000713366,-0.26591414243918265
mp-675593,K3(VS2)5,Triclinic,P1,False,0.08628225249999577,-1.2702019042638883,18.0,-22.44359017311019,-22.25261392990213,-22.068129033953355,-21.875524352493272,-21.66689473839198,-21.328488128524572,-20.45990891080553,-19.44098097858599,-18.31239572290724,-17.17100109963873,-16.015647550243873,-14.845545825789273,-13.660177652691793,-12.45919696917931,-11.242401350657225,-10.009646884684742,-8.760846180730596
mp-1193111,K3AsS3,Cubic,P2_13,True,0.0,-1.1568910438214286,7.0,-7.817203335300666,-7.704741864464178,-7.595589154046511,-7.48371675632258,-7.365919454105025,-7.207628618606274,-6.888453806623005,-6.42508993241932,-5.859769272775333,-5.2903976767029555,-4.71660882008282,-4.070672511818229,-3.4149049211544362,-2.755030064840984,-2.0909989332108108,-1.4227779011506527,-0.7503723102346989
mp-3797,K3AsS4,Orthorhombic,Pnma,False,0.0,-1.1124695627187493,8.0,-8.613637105524289,-8.493531149687843,-8.376203369573874,-8.255220732320069,-8.127138819411957,-7.94632650656146,-7.552542786210358,-7.014455135053291,-6.374140485553534,-5.729398150313811,-5.079788152341013,-4.357528852884901,-3.6249023309022803,-2.887608886289698,-2.145585327016109,-1.3987892267200088,-0.6472218780587262
mp-29975,K3BS3,Monoclinic,P2_1/c,True,0.0,-1.244962002630951,7.0,-8.416333252499923,-8.303593408952167,-8.195700388734565,-8.086100273841678,-7.971298682967371,-7.81656323129982,-7.501397759721312,-7.042432923802886,-6.481857470242264,-5.917539936552156,-5.349056994933868,-4.776135571977388,-4.19860647650926,-3.6163648399600525,-3.029373571613842,-2.437609410662695,-1.8410885812014097
mp-1224251,K3Er7S12,Orthorhombic,Pmn2_1,False,0.0,-2.2609177081060583,22.0,-48.507907003780275,-48.09522658326124,-47.68883567699419,-47.27104551746884,-46.83223755795759,-46.235837954608286,-45.0013181543899,-43.6121543359253,-42.10852222890279,-40.58688199148479,-39.04579567222298,-37.48424543009804,-35.90149267949985,-34.296981447455124,-32.66630582134982,-30.937864182843313,-29.18920024842638
mp-1193931,K3FeS3,Monoclinic,P2_1/c,True,0.0,-1.1242596670357108,7.0,-7.577372803202069,-7.461520442161552,-7.348267923055117,-7.231359819870901,-7.1073318077882295,-6.94130121956796,-6.612429874016408,-6.137941264969632,-5.557621693149288,-4.97287599704752,-4.383303650337361,-3.788651271788932,-3.1887621073951795,-2.5835416528919968,-1.972956963285604,-1.348334728537612,-0.7179608519675575
mp-541686,K3GaS3,Monoclinic,P2_1/c,True,0.0,-1.3218535402500002,7.0,-8.8965246814792,-8.749851609903375,-8.606295559097724,-8.45998872806981,-8.3078233241024,-8.115300159253648,-7.762075429694231,-7.264885506909575,-6.665993760595798,-6.0633246955144084,-5.456497477518566,-4.8452732354058625,-4.229509725196708,-3.6091248797933986,-2.98409819136854,-2.3544240184332743,-1.7201320586793223
mp-14434,K3GeS3,Monoclinic,C2/m,True,0.0,-1.2410738363214284,7.0,-8.4010509868725,-8.287612689382568,-8.177693547709712,-8.065278587725771,-7.947159482951784,-7.788759313155917,-7.469667942954716,-7.006546084404683,-6.441592848508872,-5.844381182791917,-5.239635709913738,-4.630416517059237,-4.016585505970957,-3.3980657917038606,-2.774839975722154,-2.1469065622591135,-1.5142973218675237
mp-1223561,K3NaS2,Hexagonal,P-6m2,False,0.09916876208333303,-1.1673736611458334,6.0,-6.556541158402055,-6.400018163911922,-6.246364415557842,-6.090356112937785,-5.929270801366812,-5.739754702846254,-5.441357071553532,-4.998852080848882,-4.4304868118489455,-3.797409888768418,-3.161085390115515,-2.521293762994839,-1.877898870090858,-1.2308164503955155,-0.5800194498347526,0.07450970044272509,0.7327559095779179
mp-680410,K3Nb2S11,Monoclinic,C2/c,True,0.0,-1.1684482346406249,16.0,-18.54284589161078,-18.412132863269314,-18.282472895705848,-18.14314740726066,-17.98828326282737,-17.694399734273414,-16.822066783473606,-15.803624805077511,-14.679982600012112,-13.548143675070644,-12.40708349420752,-11.256117258442234,-10.0948036844281,-8.922845698744744,-7.740087379059908,-6.546435581206296,-5.341860242936768
mp-18383,K3NbS4,Orthorhombic,Pnma,True,0.0,-1.470478333343749,8.0,-11.510003290703118,-11.397969267050316,-11.288717564842118,-11.175828624813153,-11.05587461133748,-10.883243055876612,-10.497707460899804,-9.96794877669862,-9.336051190750078,-8.699815052087423,-8.058763072218362,-7.412586276537329,-6.761089675026685,-6.104145718694543,-5.441698988738866,-4.773715350242412,-4.100194541216705
mp-1194266,K3SbS3,Cubic,P2_13,True,0.0,-1.1512724099553577,7.0,-7.767661667811883,-7.652418338220973,-7.540369761690232,-7.425490599786168,-7.304532105239027,-7.1428582812765775,-6.798118794557132,-6.308002496226173,-5.715729381361996,-5.119262302655839,-4.518252555307404,-3.9124892517386685,-3.301855022302842,-2.686285419221287,-2.065781699707811,-1.4632189809407041,-0.7908335212169604
mp-9781,K3SbS4,Orthorhombic,Cmc2_1,True,0.0,-1.0561557528125007,8.0,-8.16283698094492,-8.042429562628284,-7.924686312675464,-7.803177307515751,-7.674414598552283,-7.49269969351231,-7.075831694699259,-6.513472015689143,-5.848685307243425,-5.179327885644149,-4.504977393217278,-3.8253714947312503,-3.1403587302508207,-2.4498509351443616,-1.7538351842617015,-1.075177793532884,-0.3261109723380251
mp-558967,K3Ta2S11,Monoclinic,P2_1/c,True,0.0,-1.19095890586979,16.0,-18.795150662851626,-18.637073671294214,-18.479854891574554,-18.312833782142775,-18.13018281083598,-17.808452342437583,-16.90823928601627,-15.861904764832278,-14.710376235562176,-13.550669642165605,-12.38177910434657,-11.203046770318437,-10.014085251122246,-8.814636857697895,-7.604572614906971,-6.383813888609652,-5.152351345169464
mp-18148,K3TaS4,Orthorhombic,Pnma,True,0.0,-1.5126031301979146,8.0,-11.845225044977536,-11.732548130630255,-11.622556113257458,-11.508858453648696,-11.388050117649765,-11.214534183180174,-10.828097626306112,-10.297431761624477,-9.66463010448708,-9.027499222510372,-8.38557115507685,-7.738550401177891,-7.086268917989717,-6.428618848700575,-5.765558248105348,-5.097060236300543,-4.423134915603001
mp-3529,K3VS4,Orthorhombic,Pnma,True,0.0,-1.4150067645937505,8.0,-11.032315475413968,-10.911526167594129,-10.793309822251185,-10.671267608730421,-10.541979982850165,-10.359826184627664,-9.96456624293524,-9.424861415884328,-8.782774125910745,-8.136082957006534,-7.484289892068741,-6.82706419145061,-6.164193245815426,-5.495537069004907,-4.821028841481153,-4.140620954729982,-3.4543017460270597